# vtk DataFile Version 4.2
vtk output
ASCII
DATASET UNSTRUCTURED_GRID
POINTS 2601 double
0 0 0 1 0 0 2 0 0 
3 0 0 4 0 0 5 0 0 
6 0 0 7 0 0 8 0 0 
9 0 0 10 0 0 11 0 0 
12 0 0 13 0 0 14 0 0 
15 0 0 16 0 0 17 0 0 
18 0 0 19 0 0 20 0 0 
21 0 0 22 0 0 23 0 0 
24 0 0 25 0 0 26 0 0 
27 0 0 28 0 0 29 0 0 
30 0 0 31 0 0 32 0 0 
33 0 0 34 0 0 35 0 0 
36 0 0 37 0 0 38 0 0 
39 0 0 40 0 0 41 0 0 
42 0 0 43 0 0 44 0 0 
45 0 0 46 0 0 47 0 0 
48 0 0 49 0 0 50 0 0 
0 1 0 1 1 0 2 1 0 
3 1 0 4 1 0 5 1 0 
6 1 0 7 1 0 8 1 0 
9 1 0 10 1 0 11 1 0 
12 1 0 13 1 0 14 1 0 
15 1 0 16 1 0 17 1 0 
18 1 0 19 1 0 20 1 0 
21 1 0 22 1 0 23 1 0 
24 1 0 25 1 0 26 1 0 
27 1 0 28 1 0 29 1 0 
30 1 0 31 1 0 32 1 0 
33 1 0 34 1 0 35 1 0 
36 1 0 37 1 0 38 1 0 
39 1 0 40 1 0 41 1 0 
42 1 0 43 1 0 44 1 0 
45 1 0 46 1 0 47 1 0 
48 1 0 49 1 0 50 1 0 
0 2 0 1 2 0 2 2 0 
3 2 0 4 2 0 5 2 0 
6 2 0 7 2 0 8 2 0 
9 2 0 10 2 0 11 2 0 
12 2 0 13 2 0 14 2 0 
15 2 0 16 2 0 17 2 0 
18 2 0 19 2 0 20 2 0 
21 2 0 22 2 0 23 2 0 
24 2 0 25 2 0 26 2 0 
27 2 0 28 2 0 29 2 0 
30 2 0 31 2 0 32 2 0 
33 2 0 34 2 0 35 2 0 
36 2 0 37 2 0 38 2 0 
39 2 0 40 2 0 41 2 0 
42 2 0 43 2 0 44 2 0 
45 2 0 46 2 0 47 2 0 
48 2 0 49 2 0 50 2 0 
0 3 0 1 3 0 2 3 0 
3 3 0 4 3 0 5 3 0 
6 3 0 7 3 0 8 3 0 
9 3 0 10 3 0 11 3 0 
12 3 0 13 3 0 14 3 0 
15 3 0 16 3 0 17 3 0 
18 3 0 19 3 0 20 3 0 
21 3 0 22 3 0 23 3 0 
24 3 0 25 3 0 26 3 0 
27 3 0 28 3 0 29 3 0 
30 3 0 31 3 0 32 3 0 
33 3 0 34 3 0 35 3 0 
36 3 0 37 3 0 38 3 0 
39 3 0 40 3 0 41 3 0 
42 3 0 43 3 0 44 3 0 
45 3 0 46 3 0 47 3 0 
48 3 0 49 3 0 50 3 0 
0 4 0 1 4 0 2 4 0 
3 4 0 4 4 0 5 4 0 
6 4 0 7 4 0 8 4 0 
9 4 0 10 4 0 11 4 0 
12 4 0 13 4 0 14 4 0 
15 4 0 16 4 0 17 4 0 
18 4 0 19 4 0 20 4 0 
21 4 0 22 4 0 23 4 0 
24 4 0 25 4 0 26 4 0 
27 4 0 28 4 0 29 4 0 
30 4 0 31 4 0 32 4 0 
33 4 0 34 4 0 35 4 0 
36 4 0 37 4 0 38 4 0 
39 4 0 40 4 0 41 4 0 
42 4 0 43 4 0 44 4 0 
45 4 0 46 4 0 47 4 0 
48 4 0 49 4 0 50 4 0 
0 5 0 1 5 0 2 5 0 
3 5 0 4 5 0 5 5 0 
6 5 0 7 5 0 8 5 0 
9 5 0 10 5 0 11 5 0 
12 5 0 13 5 0 14 5 0 
15 5 0 16 5 0 17 5 0 
18 5 0 19 5 0 20 5 0 
21 5 0 22 5 0 23 5 0 
24 5 0 25 5 0 26 5 0 
27 5 0 28 5 0 29 5 0 
30 5 0 31 5 0 32 5 0 
33 5 0 34 5 0 35 5 0 
36 5 0 37 5 0 38 5 0 
39 5 0 40 5 0 41 5 0 
42 5 0 43 5 0 44 5 0 
45 5 0 46 5 0 47 5 0 
48 5 0 49 5 0 50 5 0 
0 6 0 1 6 0 2 6 0 
3 6 0 4 6 0 5 6 0 
6 6 0 7 6 0 8 6 0 
9 6 0 10 6 0 11 6 0 
12 6 0 13 6 0 14 6 0 
15 6 0 16 6 0 17 6 0 
18 6 0 19 6 0 20 6 0 
21 6 0 22 6 0 23 6 0 
24 6 0 25 6 0 26 6 0 
27 6 0 28 6 0 29 6 0 
30 6 0 31 6 0 32 6 0 
33 6 0 34 6 0 35 6 0 
36 6 0 37 6 0 38 6 0 
39 6 0 40 6 0 41 6 0 
42 6 0 43 6 0 44 6 0 
45 6 0 46 6 0 47 6 0 
48 6 0 49 6 0 50 6 0 
0 7 0 1 7 0 2 7 0 
3 7 0 4 7 0 5 7 0 
6 7 0 7 7 0 8 7 0 
9 7 0 10 7 0 11 7 0 
12 7 0 13 7 0 14 7 0 
15 7 0 16 7 0 17 7 0 
18 7 0 19 7 0 20 7 0 
21 7 0 22 7 0 23 7 0 
24 7 0 25 7 0 26 7 0 
27 7 0 28 7 0 29 7 0 
30 7 0 31 7 0 32 7 0 
33 7 0 34 7 0 35 7 0 
36 7 0 37 7 0 38 7 0 
39 7 0 40 7 0 41 7 0 
42 7 0 43 7 0 44 7 0 
45 7 0 46 7 0 47 7 0 
48 7 0 49 7 0 50 7 0 
0 8 0 1 8 0 2 8 0 
3 8 0 4 8 0 5 8 0 
6 8 0 7 8 0 8 8 0 
9 8 0 10 8 0 11 8 0 
12 8 0 13 8 0 14 8 0 
15 8 0 16 8 0 17 8 0 
18 8 0 19 8 0 20 8 0 
21 8 0 22 8 0 23 8 0 
24 8 0 25 8 0 26 8 0 
27 8 0 28 8 0 29 8 0 
30 8 0 31 8 0 32 8 0 
33 8 0 34 8 0 35 8 0 
36 8 0 37 8 0 38 8 0 
39 8 0 40 8 0 41 8 0 
42 8 0 43 8 0 44 8 0 
45 8 0 46 8 0 47 8 0 
48 8 0 49 8 0 50 8 0 
0 9 0 1 9 0 2 9 0 
3 9 0 4 9 0 5 9 0 
6 9 0 7 9 0 8 9 0 
9 9 0 10 9 0 11 9 0 
12 9 0 13 9 0 14 9 0 
15 9 0 16 9 0 17 9 0 
18 9 0 19 9 0 20 9 0 
21 9 0 22 9 0 23 9 0 
24 9 0 25 9 0 26 9 0 
27 9 0 28 9 0 29 9 0 
30 9 0 31 9 0 32 9 0 
33 9 0 34 9 0 35 9 0 
36 9 0 37 9 0 38 9 0 
39 9 0 40 9 0 41 9 0 
42 9 0 43 9 0 44 9 0 
45 9 0 46 9 0 47 9 0 
48 9 0 49 9 0 50 9 0 
0 10 0 1 10 0 2 10 0 
3 10 0 4 10 0 5 10 0 
6 10 0 7 10 0 8 10 0 
9 10 0 10 10 0 11 10 0 
12 10 0 13 10 0 14 10 0 
15 10 0 16 10 0 17 10 0 
18 10 0 19 10 0 20 10 0 
21 10 0 22 10 0 23 10 0 
24 10 0 25 10 0 26 10 0 
27 10 0 28 10 0 29 10 0 
30 10 0 31 10 0 32 10 0 
33 10 0 34 10 0 35 10 0 
36 10 0 37 10 0 38 10 0 
39 10 0 40 10 0 41 10 0 
42 10 0 43 10 0 44 10 0 
45 10 0 46 10 0 47 10 0 
48 10 0 49 10 0 50 10 0 
0 11 0 1 11 0 2 11 0 
3 11 0 4 11 0 5 11 0 
6 11 0 7 11 0 8 11 0 
9 11 0 10 11 0 11 11 0 
12 11 0 13 11 0 14 11 0 
15 11 0 16 11 0 17 11 0 
18 11 0 19 11 0 20 11 0 
21 11 0 22 11 0 23 11 0 
24 11 0 25 11 0 26 11 0 
27 11 0 28 11 0 29 11 0 
30 11 0 31 11 0 32 11 0 
33 11 0 34 11 0 35 11 0 
36 11 0 37 11 0 38 11 0 
39 11 0 40 11 0 41 11 0 
42 11 0 43 11 0 44 11 0 
45 11 0 46 11 0 47 11 0 
48 11 0 49 11 0 50 11 0 
0 12 0 1 12 0 2 12 0 
3 12 0 4 12 0 5 12 0 
6 12 0 7 12 0 8 12 0 
9 12 0 10 12 0 11 12 0 
12 12 0 13 12 0 14 12 0 
15 12 0 16 12 0 17 12 0 
18 12 0 19 12 0 20 12 0 
21 12 0 22 12 0 23 12 0 
24 12 0 25 12 0 26 12 0 
27 12 0 28 12 0 29 12 0 
30 12 0 31 12 0 32 12 0 
33 12 0 34 12 0 35 12 0 
36 12 0 37 12 0 38 12 0 
39 12 0 40 12 0 41 12 0 
42 12 0 43 12 0 44 12 0 
45 12 0 46 12 0 47 12 0 
48 12 0 49 12 0 50 12 0 
0 13 0 1 13 0 2 13 0 
3 13 0 4 13 0 5 13 0 
6 13 0 7 13 0 8 13 0 
9 13 0 10 13 0 11 13 0 
12 13 0 13 13 0 14 13 0 
15 13 0 16 13 0 17 13 0 
18 13 0 19 13 0 20 13 0 
21 13 0 22 13 0 23 13 0 
24 13 0 25 13 0 26 13 0 
27 13 0 28 13 0 29 13 0 
30 13 0 31 13 0 32 13 0 
33 13 0 34 13 0 35 13 0 
36 13 0 37 13 0 38 13 0 
39 13 0 40 13 0 41 13 0 
42 13 0 43 13 0 44 13 0 
45 13 0 46 13 0 47 13 0 
48 13 0 49 13 0 50 13 0 
0 14 0 1 14 0 2 14 0 
3 14 0 4 14 0 5 14 0 
6 14 0 7 14 0 8 14 0 
9 14 0 10 14 0 11 14 0 
12 14 0 13 14 0 14 14 0 
15 14 0 16 14 0 17 14 0 
18 14 0 19 14 0 20 14 0 
21 14 0 22 14 0 23 14 0 
24 14 0 25 14 0 26 14 0 
27 14 0 28 14 0 29 14 0 
30 14 0 31 14 0 32 14 0 
33 14 0 34 14 0 35 14 0 
36 14 0 37 14 0 38 14 0 
39 14 0 40 14 0 41 14 0 
42 14 0 43 14 0 44 14 0 
45 14 0 46 14 0 47 14 0 
48 14 0 49 14 0 50 14 0 
0 15 0 1 15 0 2 15 0 
3 15 0 4 15 0 5 15 0 
6 15 0 7 15 0 8 15 0 
9 15 0 10 15 0 11 15 0 
12 15 0 13 15 0 14 15 0 
15 15 0 16 15 0 17 15 0 
18 15 0 19 15 0 20 15 0 
21 15 0 22 15 0 23 15 0 
24 15 0 25 15 0 26 15 0 
27 15 0 28 15 0 29 15 0 
30 15 0 31 15 0 32 15 0 
33 15 0 34 15 0 35 15 0 
36 15 0 37 15 0 38 15 0 
39 15 0 40 15 0 41 15 0 
42 15 0 43 15 0 44 15 0 
45 15 0 46 15 0 47 15 0 
48 15 0 49 15 0 50 15 0 
0 16 0 1 16 0 2 16 0 
3 16 0 4 16 0 5 16 0 
6 16 0 7 16 0 8 16 0 
9 16 0 10 16 0 11 16 0 
12 16 0 13 16 0 14 16 0 
15 16 0 16 16 0 17 16 0 
18 16 0 19 16 0 20 16 0 
21 16 0 22 16 0 23 16 0 
24 16 0 25 16 0 26 16 0 
27 16 0 28 16 0 29 16 0 
30 16 0 31 16 0 32 16 0 
33 16 0 34 16 0 35 16 0 
36 16 0 37 16 0 38 16 0 
39 16 0 40 16 0 41 16 0 
42 16 0 43 16 0 44 16 0 
45 16 0 46 16 0 47 16 0 
48 16 0 49 16 0 50 16 0 
0 17 0 1 17 0 2 17 0 
3 17 0 4 17 0 5 17 0 
6 17 0 7 17 0 8 17 0 
9 17 0 10 17 0 11 17 0 
12 17 0 13 17 0 14 17 0 
15 17 0 16 17 0 17 17 0 
18 17 0 19 17 0 20 17 0 
21 17 0 22 17 0 23 17 0 
24 17 0 25 17 0 26 17 0 
27 17 0 28 17 0 29 17 0 
30 17 0 31 17 0 32 17 0 
33 17 0 34 17 0 35 17 0 
36 17 0 37 17 0 38 17 0 
39 17 0 40 17 0 41 17 0 
42 17 0 43 17 0 44 17 0 
45 17 0 46 17 0 47 17 0 
48 17 0 49 17 0 50 17 0 
0 18 0 1 18 0 2 18 0 
3 18 0 4 18 0 5 18 0 
6 18 0 7 18 0 8 18 0 
9 18 0 10 18 0 11 18 0 
12 18 0 13 18 0 14 18 0 
15 18 0 16 18 0 17 18 0 
18 18 0 19 18 0 20 18 0 
21 18 0 22 18 0 23 18 0 
24 18 0 25 18 0 26 18 0 
27 18 0 28 18 0 29 18 0 
30 18 0 31 18 0 32 18 0 
33 18 0 34 18 0 35 18 0 
36 18 0 37 18 0 38 18 0 
39 18 0 40 18 0 41 18 0 
42 18 0 43 18 0 44 18 0 
45 18 0 46 18 0 47 18 0 
48 18 0 49 18 0 50 18 0 
0 19 0 1 19 0 2 19 0 
3 19 0 4 19 0 5 19 0 
6 19 0 7 19 0 8 19 0 
9 19 0 10 19 0 11 19 0 
12 19 0 13 19 0 14 19 0 
15 19 0 16 19 0 17 19 0 
18 19 0 19 19 0 20 19 0 
21 19 0 22 19 0 23 19 0 
24 19 0 25 19 0 26 19 0 
27 19 0 28 19 0 29 19 0 
30 19 0 31 19 0 32 19 0 
33 19 0 34 19 0 35 19 0 
36 19 0 37 19 0 38 19 0 
39 19 0 40 19 0 41 19 0 
42 19 0 43 19 0 44 19 0 
45 19 0 46 19 0 47 19 0 
48 19 0 49 19 0 50 19 0 
0 20 0 1 20 0 2 20 0 
3 20 0 4 20 0 5 20 0 
6 20 0 7 20 0 8 20 0 
9 20 0 10 20 0 11 20 0 
12 20 0 13 20 0 14 20 0 
15 20 0 16 20 0 17 20 0 
18 20 0 19 20 0 20 20 0 
21 20 0 22 20 0 23 20 0 
24 20 0 25 20 0 26 20 0 
27 20 0 28 20 0 29 20 0 
30 20 0 31 20 0 32 20 0 
33 20 0 34 20 0 35 20 0 
36 20 0 37 20 0 38 20 0 
39 20 0 40 20 0 41 20 0 
42 20 0 43 20 0 44 20 0 
45 20 0 46 20 0 47 20 0 
48 20 0 49 20 0 50 20 0 
0 21 0 1 21 0 2 21 0 
3 21 0 4 21 0 5 21 0 
6 21 0 7 21 0 8 21 0 
9 21 0 10 21 0 11 21 0 
12 21 0 13 21 0 14 21 0 
15 21 0 16 21 0 17 21 0 
18 21 0 19 21 0 20 21 0 
21 21 0 22 21 0 23 21 0 
24 21 0 25 21 0 26 21 0 
27 21 0 28 21 0 29 21 0 
30 21 0 31 21 0 32 21 0 
33 21 0 34 21 0 35 21 0 
36 21 0 37 21 0 38 21 0 
39 21 0 40 21 0 41 21 0 
42 21 0 43 21 0 44 21 0 
45 21 0 46 21 0 47 21 0 
48 21 0 49 21 0 50 21 0 
0 22 0 1 22 0 2 22 0 
3 22 0 4 22 0 5 22 0 
6 22 0 7 22 0 8 22 0 
9 22 0 10 22 0 11 22 0 
12 22 0 13 22 0 14 22 0 
15 22 0 16 22 0 17 22 0 
18 22 0 19 22 0 20 22 0 
21 22 0 22 22 0 23 22 0 
24 22 0 25 22 0 26 22 0 
27 22 0 28 22 0 29 22 0 
30 22 0 31 22 0 32 22 0 
33 22 0 34 22 0 35 22 0 
36 22 0 37 22 0 38 22 0 
39 22 0 40 22 0 41 22 0 
42 22 0 43 22 0 44 22 0 
45 22 0 46 22 0 47 22 0 
48 22 0 49 22 0 50 22 0 
0 23 0 1 23 0 2 23 0 
3 23 0 4 23 0 5 23 0 
6 23 0 7 23 0 8 23 0 
9 23 0 10 23 0 11 23 0 
12 23 0 13 23 0 14 23 0 
15 23 0 16 23 0 17 23 0 
18 23 0 19 23 0 20 23 0 
21 23 0 22 23 0 23 23 0 
24 23 0 25 23 0 26 23 0 
27 23 0 28 23 0 29 23 0 
30 23 0 31 23 0 32 23 0 
33 23 0 34 23 0 35 23 0 
36 23 0 37 23 0 38 23 0 
39 23 0 40 23 0 41 23 0 
42 23 0 43 23 0 44 23 0 
45 23 0 46 23 0 47 23 0 
48 23 0 49 23 0 50 23 0 
0 24 0 1 24 0 2 24 0 
3 24 0 4 24 0 5 24 0 
6 24 0 7 24 0 8 24 0 
9 24 0 10 24 0 11 24 0 
12 24 0 13 24 0 14 24 0 
15 24 0 16 24 0 17 24 0 
18 24 0 19 24 0 20 24 0 
21 24 0 22 24 0 23 24 0 
24 24 0 25 24 0 26 24 0 
27 24 0 28 24 0 29 24 0 
30 24 0 31 24 0 32 24 0 
33 24 0 34 24 0 35 24 0 
36 24 0 37 24 0 38 24 0 
39 24 0 40 24 0 41 24 0 
42 24 0 43 24 0 44 24 0 
45 24 0 46 24 0 47 24 0 
48 24 0 49 24 0 50 24 0 
0 25 0 1 25 0 2 25 0 
3 25 0 4 25 0 5 25 0 
[...]
CELL_DATA 2500
SCALARS $\mu_{AB} double
LOOKUP_TABLE default
0 0 0 0 0 0 0 0 0 
0 0 0 0 0 0 0 0 0 
0 0 0 0 0 0 0 0 0 
0 0 0 0 0 0 0 0 0 
0 0 0 0 0 0 0 0 0 
0 0 0 0 0 0 0 0 0 
0 0 0 0 0 0 0 0 0 
0 0 0 0 0 0 0 0 0 
0 0 0 0 0 0 0 0 0 
0 0 0 0 0 0 0 0 0 
0 0 0 0 0 0 0 0 0 
0 0 0 0 0 0 0 0 0 
0 0 0 0 0 0 0 0 0 
0 0 0 0 0 0 0 0 0 
0 0 0 0 0 0 0 0 0 
0 0 0 0 0 0 0 0 0 
0 0 0 0 0 0 0 0 0 
0 0 0 0 0 0 0 0 0 
0 0 0 0 0 0 0 0 0 
0 0 0 0 0 0 0 0 0 
0 0 0 0 0 0 0 0 0 
0 0 0 0 0 0 0 0 0 
0 0 0 0 0 0 0 0 0 
0 0 0 0 0 0 0 0 0 
0 0 0 0 0 0 0 0 0 
0 0 0 0 0 0 0 0 0 
0 0 0 0 0 0 0 0 0 
0 0 0 0 0 0 0 0 0 
0 0 0 0 0 0 0 0 0 
0 0 0 0 0 0 0 0 0 
0 0 0 0 0 0 0 0 0 
0 0 0 0 0 0 0 0 0 
0 0 0 0 0 0 0 0 0 
0 0 0 0 0 0 0 0 0 
0 0 0 0 0 0 0 0 0 
0 0 0 0 0 0 0 0 0 
0 0 0 0 0 0 0 0 0 
0 0 0 0 0 0 0 0 0 
0 0 0 0 0 0 0 0 0 
0 0 0 0 0 0 0 0 0 
0 0 0 0 0 0 0 0 0 
0 0 0 0 0 0 0 0 0 
0 0 0 0 0 0 0 0 0 
0 0 0 0 0 0 0 0 0 
0 0 0 0 0 0 0 0 0 
0 0 0 0 0 0 0 0 0 
0 0 0 0 0 0 0 0 0 
0 0 0 0 0 0 0 0 0 
0 0 0 0 0 0 0 0 0 
0 0 0 0 0 0 0 0 0 
0 0 0 0 0 0 0 0 0 
0 0 0 0 0 0 0 0 0 
0 0 0 0 0 0 0 0 0 
0 0 0 0 0 0 0 0 0 
0 0 0 0 0 0 0 0 0 
0 0 0 0 0 0 0 0 0 
0 0 0 0 0 0 0 0 0 
0 0 0 0 0 0 0 0 0 
0 0 0 0 0 0 0 0 0 
0 0 0 0 0 0 0 0 0 
0 0 0 0 0 0 0 0 0 
0 0 0 0 0 0 0 0 0 
0 0 0 0 0 0 0 0 0 
0 0 0 0 0 0 0 0 0 
0 0 0 0 0 0 0 0 0 
0 0 0 0 0 0 0 0 0 
0 0 0 0 0 0 0 0 0 
0 0 0 0 0 0 0 0 0 
0 0 0 0 0 0 0 0 0 
0 0 0 0 0 0 0 0 0 
0 0 0 0 0 0 0 0 0 
0 0 0 0 0 0 0 0 0 
0 0 0 0 0 0 0 0 0 
0 0 0 0 0 0 0 0 0 
0 0 0 0 0 0 0 0 0 
0 0 0 0 0 0 0 0 0 
0 0 0 0 0 0 0 0 0 
0 0 0 0 0 0 0 0 0 
0 0 0 0 0 0 0 0 0 
0 0 0 0 0 0 0 0 0 
0 0 0 0 0 0 0 0 0 
0 0 0 0 0 0 0 0 0 
0 0 0 0 0 0 0 0 0 
0 0 0 0 0 0 0 0 0 
0 0 0 0 0 0 0 0 0 
0 0 0 0 0 0 0 0 0 
0 0 0 0 0 0 0 0 0 
0 0 0 0 0 0 0 0 0 
0 0 0 0 0 0 0 0 0 
0 0 0 0 0 0 0 0 0 
0 0 0 0 0 0 0 0 0 
0 0 0 0 0 0 0 0 0 
0 0 0 0 0 0 0 0 0 
0 0 0 0 0 0 0 0 0 
0 0 0 0 0 0 0 0 0 
0 0 0 0 0 0 0 0 0 
0 0 0 0 0 0 0 0 0 
0 0 0 0 0 0 0 0 0 
0 0 0 0 0 0 0 0 0 
0 0 0 0 0 0 0 0 0 
0 0 0 0 0 0 0 0 0 
0 0 0 0 0 0 0 0 0 
0 0 0 0 0 0 0 0 0 
0 0 0 0 0 0 0 0 0 
0 0 0 0 0 0 0 0 0 
0 0 0 0 0 0 0 0 0 
0 0 0 0 0 0 0 0 0 
0 0 0 0 0 0 0 0 0 
0 0 0 0 0 0 0 0 0 
0 0 0 0 0 0 0 0 0 
0 0 0 0 0 0 0 0 0 
0 0 0 0 0 0 0 0 0 
0 0 0 0 0 0 0 0 0 
0 0 0 0 0 0 0 0 0 
0 0 0 0 0 0 0 0 0 
0 0 0 0 0 0 0 0 0 
0 0 0 0 0 0 0 0 0 
0 0 0 0 0 0 0 0 0 
0 0 0 0 0 0 0 0 0 
0 0 0 0 0 0 0 0 0 
0 0 0 0 0 0 0 0 0 
0 0 0 0 0 0 0 0 0 
0 0 0 0 0 0 0 0 0 
0 0 0 0 0 0 0 0 0 
0 0 0 0 0 0 0 0 0 
0 0 0 0 0 0 0 0 0 
0 0 0 0 0 0 0 0 0 
0 0 0 0 0 0 0 0 0 
0 0 0 0 0 0 0 0 0 
0 0 0 0 0 0 0 0 0 
0 0 0 0 0 0 0 0 0 
0 0 0 0 0 0 0 0 0 
0 0 0 0 0 0 0 0 0 
0 0 0 0 0 0 0 0 0 
0 0 0 0 0 0 0 0 0 
0 0 0 0 0 0 0 0 0 
0 0 0 0 0 0 0 0 0 
0 0 0 0 0 0 0 0 0 
0 0 0 0 0 0 0 0 0 
0 0 0 0 0 0 0 0 0 
0 0 0 0 0 0 0 0 0 
0 0 0 0 0 0 0 0 0 
0 0 0 0 0 0 0 0 0 
0 0 0 0 0 0 0 0 0 
0 0 0 0 0 0 0 0 0 
0 0 0 0 0 0 0 0 0 
0 0 0 0 0 0 0 0 0 
0 0 0 0 0 0 0 0 0 
0 0 0 0 0 0 0 0 0 
0 0 0 0 0 0 0 0 0 
0 0 0 0 0 0 0 0 0 
0 0 0 0 0 0 0 0 0 
0 0 0 0 0 0 0 0 0 
0 0 0 0 0 0 0 0 0 
0 0 0 0 0 0 0 0 0 
0 0 0 0 0 0 0 0 0 
0 0 0 0 0 0 0 0 0 
0 0 0 0 0 0 0 0 0 
0 0 0 0 0 0 0 0 0 
0 0 0 0 0 0 0 0 0 
0 0 0 0 0 0 0 0 0 
0 0 0 0 0 0 0 0 0 
0 0 0 0 0 0 0 0 0 
0 0 0 0 0 0 0 0 0 
0 0 0 0 0 0 0 0 0 
0 0 0 0 0 0 0 0 0 
0 0 0 0 0 0 0 0 0 
0 0 0 0 0 0 0 0 0 
0 0 0 0 0 0 0 0 0 
0 0 0 0 0 0 0 0 0 
0 0 0 0 0 0 0 0 0 
0 0 0 0 0 0 0 0 0 
0 0 0 0 0 0 0 0 0 
0 0 0 0 0 0 0 0 0 
0 0 0 0 0 0 0 0 0 
0 0 0 0 0 0 0 0 0 
0 0 0 0 0 0 0 0 0 
0 0 0 0 0 0 0 0 0 
0 0 0 0 0 0 0 0 0 
0 0 0 0 0 0 0 0 0 
0 0 0 0 0 0 0 0 0 
0 0 0 0 0 0 0 0 0 
0 0 0 0 0 0 0 0 0 
0 0 0 0 0 0 0 0 0 
0 0 0 0 0 0 0 0 0 
0 0 0 0 0 0 0 0 0 
0 0 0 0 0 0 0 0 0 
0 0 0 0 0 0 0 0 0 
0 0 0 0 0 0 0 0 0 
0 0 0 0 0 0 0 0 0 
0 0 0 0 0 0 0 0 0 
0 0 0 0 0 0 0 0 0 
0 0 0 0 0 0 0 0 0 
0 0 0 0 0 0 0 0 0 
0 0 0 0 0 0 0 0 0 
0 0 0 0 0 0 0 0 0 
0 0 0 0 0 0 0 0 0 
0 0 0 0 0 0 0 0 0 
0 0 0 0 0 0 0 0 0 
0 0 0 0 0 0 0 0 0 
0 0 0 0 0 0 0 0 0 
0 0 0 0 0 0 0 0 0 
0 0 0 0 0 0 0 0 0 
0 0 0 0 0 0 0 0 0 
0 0 0 0 0 0 0 0 0 
0 0 0 0 0 0 0 0 0 
0 0 0 0 0 0 0 0 0 
0 0 0 0 0 0 0 0 0 
0 0 0 0 0 0 0 0 0 
0 0 0 0 0 0 0 0 0 
0 0 0 0 0 0 0 0 0 
0 0 0 0 0 0 0 0 0 
0 0 0 0 0 0 0 0 0 
0 0 0 0 0 0 0 0 0 
0 0 0 0 0 0 0 0 0 
0 0 0 0 0 0 0 0 0 
0 0 0 0 0 0 0 0 0 
0 0 0 0 0 0 0 0 0 
0 0 0 0 0 0 0 0 0 
0 0 0 0 0 0 0 0 0 
0 0 0 0 0 0 0 0 0 
0 0 0 0 0 0 0 0 0 
0 0 0 0 0 0 0 0 0 
0 0 0 0 0 0 0 0 0 
0 0 0 0 0 0 0 0 0 
0 0 0 0 0 0 0 0 0 
0 0 0 0 0 0 0 0 0 
0 0 0 0 0 0 0 0 0 
0 0 0 0 0 0 0 0 0 
0 0 0 0 0 0 0 0 0 
0 0 0 0 0 0 0 0 0 
0 0 0 0 0 0 0 0 0 
0 0 0 0 0 0 0 0 0 
0 0 0 0 0 0 0 0 0 
0 0 0 0 0 0 0 0 0 
0 0 0 0 0 0 0 0 0 
0 0 0 0 0 0 0 0 0 
0 0 0 0 0 0 0 0 0 
0 0 0 0 0 0 0 0 0 
0 0 0 0 0 0 0 0 0 
0 0 0 0 0 0 0 0 0 
0 0 0 0 0 0 0 0 0 
0 0 0 0 0 0 0 0 0 
0 0 0 0 0 0 0 0 0 
0 0 0 0 0 0 0 0 0 
0 0 0 0 0 0 0 0 0 
0 0 0 0 0 0 0 0 0 
0 0 0 0 0 0 0 0 0 
0 0 0 0 0 0 0 0 0 
0 0 0 0 0 0 0 0 0 
0 0 0 0 0 0 0 0 0 
0 0 0 0 0 0 0 0 0 
0 0 0 0 0 0 0 0 0 
0 0 0 0 0 0 0 0 0 
0 0 0 0 0 0 0 0 0 
0 0 0 0 0 0 0 0 0 
0 0 0 0 0 0 0 0 0 
0 0 0 0 0 0 0 0 0 
0 0 0 0 0 0 0 0 0 
0 0 0 0 0 0 0 0 0 
0 0 0 0 0 0 0 0 0 
0 0 0 0 0 0 0 0 0 
0 0 0 0 0 0 0 0 0 
0 0 0 0 0 0 0 0 0 
0 0 0 0 0 0 0 0 0 
0 0 0 0 0 0 0 0 0 
0 0 0 0 0 0 0 0 0 
0 0 0 0 0 0 0 0 0 
0 0 0 0 0 0 0 0 0 
0 0 0 0 0 0 0 0 0 
0 0 0 0 0 0 0 0 0 
0 0 0 0 0 0 0 0 0 
0 0 0 0 0 0 0 0 0 
0 0 0 0 0 0 0 0 0 
0 0 0 0 0 0 0 0 0 
0 0 0 0 0 0 0 0 0 
0 0 0 0 0 0 0 0 0 
0 0 0 0 0 0 0 
FIELD FieldData 1
$a$ 1 2500 double
0.782650234 0.79867679794 0.77496056096 0.78969976274 0.78027254656 0.77782419197 0.75625561245 0.75844020612 0.78808769907 
0.77318105765 0.75616078901 0.78403594106 0.79484258142 0.75328879281 0.74278110997 0.76327651877 0.74313766713 0.7458943913 
0.75335857799 0.75527935446 0.77936894762 0.76147740307 0.75547371708 0.76096605913 0.78119339663 0.75681630507 0.78502012698 
0.74211745007 0.79071201768 0.75543430995 0.77974499121 0.74576483918 0.79356142401 0.74343062245 0.74836262182 0.75118448371 
0.75027424862 0.76810478054 0.76402889544 0.76628817411 0.78976726278 0.77575490864 0.78852833035 0.77574841685 0.74324896435 
0.79960579607 0.79962878878 0.74110031378 0.79472487729 0.78259541796 0.74397153249 0.77381148961 0.79767351611 0.78203155857 
0.78038950365 0.75956425705 0.79273347673 0.76765944753 0.75868891899 0.78884457732 0.74642035716 0.74450245165 0.79484467474 
0.78994289066 0.7532096494 0.74444462324 0.76168625184 0.77505665986 0.76194957031 0.79752085674 0.76796203723 0.74206108381 
0.78736270728 0.77515153 0.79214028312 0.78590589728 0.78064053046 0.74921175654 0.77858260961 0.78473719002 0.75634226369 
0.76021331713 0.79150443426 0.78241263325 0.76737373092 0.77300924705 0.7453263852 0.78068332097 0.77195927071 0.75901065653 
0.79016476108 0.79239788007 0.74862107954 0.79001234849 0.74208269806 0.74544808098 0.77591767718 0.77202214727 0.76678776569 
0.7948721069 0.75535841443 0.74860371405 0.78473530233 0.74225151911 0.75981586799 0.7493673799 0.78746546237 0.77001929101 
0.77410640234 0.76841215797 0.75133529481 0.79897680853 0.79789298102 0.76430061491 0.79332875602 0.77244195084 0.78270222844 
0.77991339684 0.77510075515 0.77836150755 0.76462286111 0.75396842485 0.76963259603 0.77291159303 0.77346306962 0.77390715227 
0.74384118433 0.7916237424 0.79772304698 0.74716708739 0.74265059153 0.79958445725 0.77047127746 0.78228639497 0.76838669416 
0.76450762879 0.79850399899 0.75057776578 0.74007729092 0.7415491678 0.77867454068 0.75460374728 0.78778320157 0.79997166155 
0.78792123633 0.77846367683 0.76012453837 0.76621502117 0.74974107242 0.76350857178 0.79010186785 0.75091952516 0.79435719861 
0.74388345886 0.76500016992 0.7695685401 0.7903498051 0.78786996323 0.76231873402 0.77628910614 0.77597057097 0.79021438646 
0.77314287744 0.78160271334 0.77285493665 0.767450058 0.74724973917 0.75290911586 0.78479657681 0.74978814137 0.76716051884 
0.76521153147 0.79408661814 0.77379026168 0.7996731273 0.74742694385 0.77719778373 0.79959257812 0.74969281772 0.78099799789 
0.75953494008 0.78081208847 0.78626141619 0.75576162588 0.77837045276 0.75998790861 0.75398928466 0.74219143421 0.79829111185 
0.74755389672 0.74201432139 0.77293473793 0.79215045836 0.77648847045 0.78785205104 0.79426464844 0.77517462458 0.77870413091 
0.79661328695 0.76792605778 0.75907273731 0.79658926834 0.7655615327 0.78770106971 0.76569087875 0.74924257552 0.78738958133 
0.74743274351 0.78454492657 0.79322934209 0.78619087657 0.79107176613 0.79966188981 0.77147635374 0.79312711078 0.7727104043 
0.7836389084 0.76642726089 0.74492694847 0.7626656298 0.76214790388 0.76451411888 0.74964101156 0.79043303799 0.79150890202 
0.7578699468 0.74292558831 0.76655824822 0.74495901002 0.74990130906 0.78168144069 0.77358108331 0.77558957034 0.79095821684 
0.74054695726 0.77352505204 0.79089195157 0.75466863052 0.74138627933 0.74336157106 0.77243864417 0.79846376939 0.75209136576 
0.7904222718 0.75242575586 0.7669609956 0.78517136277 0.78452016668 0.77709246291 0.77924193476 0.78270518719 0.76241018699 
0.77516241526 0.75630102949 0.74520668194 0.76307510065 0.75248964889 0.78582460635 0.78845312948 0.74325927843 0.74285061044 
0.75765484048 0.79215231233 0.7701654054 0.7443205018 0.75677329977 0.79532060112 0.75527027988 0.74145534057 0.77806432843 
0.7951902658 0.79871407469 0.74219203215 0.75892712075 0.76387840252 0.78686214177 0.76931279103 0.77694575527 0.79317458488 
0.75294001033 0.79682198222 0.74998392471 0.78198257515 0.74195986213 0.76176502978 0.75478406519 0.79417314026 0.79540861123 
0.77932942764 0.75766060734 0.75394355179 0.76528049237 0.779844546 0.74095105212 0.77275460079 0.79227865805 0.77630920352 
0.77263545477 0.74362108156 0.74572784544 0.77118464629 0.74012806027 0.78299179669 0.76582671055 0.77709575344 0.77177807906 
0.79378902477 0.78673435369 0.74728358913 0.78801739688 0.75953620886 0.76961879888 0.78411226546 0.74326523452 0.79584334361 
0.79760164254 0.75310825245 0.76810183354 0.77453273156 0.77501824525 0.75952631199 0.77186876847 0.79357792758 0.77198094668 
0.75371211326 0.79342027649 0.76933019854 0.76440228902 0.78977007333 0.76472095071 0.74800918842 0.7859601259 0.77471089011 
0.79261494357 0.76598932762 0.79972950247 0.79300464395 0.74477349042 0.79943513576 0.74080325164 0.79288830143 0.74294967155 
0.7643132896 0.75054508018 0.74699184343 0.76737485118 0.78360908546 0.79389402699 0.77795859763 0.77328926901 0.76609214665 
0.76864276748 0.74509537606 0.7656784442 0.7451637125 0.79180972634 0.76774795638 0.79520867588 0.78555473426 0.77941182441 
0.75548568154 0.7765790175 0.79402772671 0.79089991028 0.76199562669 0.79884753636 0.79854004731 0.78153568369 0.79574542125 
0.77867257888 0.75293543362 0.74062283542 0.76683345694 0.75886931124 0.75568310022 0.79020526289 0.78012529447 0.78930585076 
0.78145142609 0.7687849234 0.7950675899 0.78218865397 0.79506910797 0.79644731046 0.75684527238 0.78070816631 0.77582214618 
0.76458988883 0.78207075833 0.74781628851 0.763921808 0.79607549552 0.75848194926 0.78355551642 0.77809053383 0.77075584822 
0.75684974213 0.77188094405 0.75188193955 0.79772563071 0.7562726166 0.77839778693 0.78477309231 0.7543491297 0.79997602737 
0.76604218411 0.74768268777 0.75370953704 0.75639431866 0.7868007836 0.75507940126 0.76799596138 0.79013727525 0.78609232636 
0.77356430724 0.79177318696 0.78153966626 0.7970160213 0.79293355844 0.7579217986 0.77139525233 0.78608948452 0.74469833909 
0.7973342916 0.76316755537 0.78060835706 0.74466910454 0.75899868711 0.7630513112 0.74504222985 0.76723151832 0.77471249573 
0.79860528878 0.780133084 0.79345168934 0.75231189571 0.76497049495 0.75261076187 0.76337890546 0.76171276217 0.77596367163 
0.74831356024 0.7512244967 0.77239771123 0.78017383058 0.74156404517 0.76350375624 0.79545314612 0.74863244196 0.75229364872 
0.78046699835 0.77739168535 0.77093172588 0.74757554461 0.77174136113 0.7977464673 0.78498285839 0.78350329407 0.79669756272 
0.76831500272 0.76329492105 0.76909500287 0.77782378208 0.78343447807 0.77505275456 0.74745805623 0.76074129222 0.74808100036 
0.7905856368 0.7869836276 0.78098640681 0.74423935353 0.76062419054 0.77531412197 0.78623818516 0.75117337851 0.74566330453 
0.75430460479 0.74659269168 0.77519015409 0.7758588323 0.76269576508 0.78215328782 0.76690889135 0.78151095183 0.75317765207 
0.75565105106 0.7583766928 0.79654563216 0.740844721 0.78854484018 0.79568845466 0.74448729702 0.79079662367 0.79180587015 
0.76015150293 0.7881735551 0.77038084498 0.75425330099 0.75452085645 0.7458910302 0.74422840667 0.76773727229 0.76357825354 
0.77554597093 0.74863727858 0.79268389686 0.77379462533 0.7959217063 0.77004420913 0.77212581244 0.76731037693 0.75038929571 
0.78857028661 0.7698547481 0.75556734801 0.75552005172 0.7412278112 0.78312599864 0.78059674995 0.77310908304 0.76351918603 
0.75406033971 0.76381713014 0.78941041622 0.79654448588 0.78376152148 0.79628657539 0.76703886459 0.78928984754 0.78446990287 
0.75613415238 0.75666099351 0.78205574268 0.75104590747 0.793561332 0.75469075457 0.78702406648 0.74049992708 0.77651882503 
0.79423736028 0.76454386197 0.75437344156 0.7918073082 0.77213801214 0.74468602017 0.74785051612 0.78787507475 0.75023459919 
0.7942659886 0.79188284731 0.75073508882 0.78258485276 0.78596559249 0.75745503513 0.74212655575 0.76835578925 0.77234114419 
0.78826841313 0.77386633326 0.79510993974 0.7704417438 0.74652011683 0.79106580488 0.780116155 0.74745068982 0.75256503427 
0.74974911686 0.77852187275 0.74644434409 0.76260093904 0.76078134611 0.77193827896 0.7401496575 0.7831082005 0.7457560937 
0.75918492995 0.75969325067 0.79333805384 0.77744797196 0.75584565543 0.75018498249 0.78951026384 0.78330832274 0.79415704754 
0.75440545084 0.79309607943 0.79984845073 0.78238849076 0.74707547728 0.7868458991 0.79056838405 0.77061291164 0.76555288214 
0.77272431595 0.78788431348 0.78059360754 0.7839728933 0.75777951677 0.75086405498 0.78742273789 0.78380965985 0.79485105209 
0.79032429565 0.75897636013 0.77713218634 0.7532824611 0.75932468995 0.77214328647 0.75081232961 0.75300478886 0.74890231728 
0.75973674295 0.76286627669 0.74785355736 0.76659916462 0.74584196501 0.74403185317 0.75470080594 0.77955458978 0.76725848647 
0.75214728239 0.79130101218 0.74166777589 0.78335531571 0.79058290934 0.78609668071 0.79322020548 0.78143356786 0.77905217228 
0.76179274258 0.78683903825 0.79243096462 0.78881959796 0.76709120292 0.7464703079 0.76715191306 0.77435170146 0.74554219808 
0.77708895103 0.76696112197 0.75005325183 0.78491253427 0.78422489576 0.7796301877 0.79764968611 0.74245187679 0.77917721585 
0.74536525809 0.76748222194 0.77032931401 0.753276471 0.76285066583 0.74864066447 0.75071307527 0.75408397401 0.78328874874 
0.77966221201 0.7750761774 0.74573530333 0.7705430831 0.74008505662 0.75651610568 0.76665487831 0.76164577271 0.77338208739 
0.7610699953 0.7851270653 0.7993151356 0.75286485572 0.76391188689 0.74213790155 0.74824726884 0.77803747178 0.76409362574 
0.7964582241 0.78207458438 0.79280604121 0.77125056693 0.75951540503 0.75500457801 0.7570385907 0.76439788396 0.78093564086 
0.75030465425 0.74406995469 0.7515386199 0.79270134975 0.79555179514 0.76521550873 0.75266307801 0.76122942227 0.74329236109 
0.75986062803 0.77364716833 0.78302404084 0.79684742906 0.780638039 0.78369576211 0.74917501075 0.78318429413 0.75691281988 
0.78597536443 0.79738079226 0.79933040583 0.75968636528 0.7983124386 0.79630188579 0.77076157206 0.77922121602 0.74361553347 
0.74795676264 0.77318950194 0.7878621291 0.77607002971 0.78285039634 0.76148034893 0.77525775427 0.78372925266 0.7406179225 
0.74405343801 0.75633178665 0.74716573908 0.75752563553 0.78722438745 0.75168126981 0.78036337874 0.79570516655 0.78447408303 
0.74145236687 0.77695466417 0.78794796297 0.76091624482 0.75451404784 0.78617820543 0.76024249726 0.79146215237 0.78601865444 
0.79975811952 0.75192380142 0.76696969721 0.74618854278 0.75082475287 0.7784792476 0.74836360371 0.76158520207 0.74519313885 
0.76389289528 0.75945023784 0.77501996429 0.78814358412 0.77428876628 0.76622007247 0.79019861589 0.76026681927 0.79825653104 
0.78964963154 0.791657538 0.77729090074 0.79302757095 0.7765565379 0.7474762605 0.74599572103 0.78341749673 0.78876376979 
0.77365924689 0.74934135039 0.78927789311 0.79977788326 0.78756536203 0.76996332004 0.78811525277 0.78806443037 0.78123133672 
0.77780610944 0.7831723359 0.78344274916 0.74485934608 0.78097407119 0.7486338672 0.79576317403 0.76846423339 0.79238185839 
0.78425928432 0.78725158398 0.76840986841 0.79757114171 0.79921792253 0.76561540262 0.78738836878 0.79629366631 0.7401771635 
0.75406017346 0.79013802589 0.75932953376 0.74245164727 0.78807227468 0.7567438219 0.75096353396 0.79505672697 0.77196578749 
0.76715647221 0.77291883769 0.74215036925 0.78589591907 0.76322477279 0.76746804063 0.77643543899 0.74935956135 0.79374412399 
0.78090097654 0.76651668895 0.76723754487 0.74687326673 0.77525655785 0.7612497939 0.78359305492 0.77416027542 0.79443394093 
0.74886374699 0.77845066301 0.79564677325 0.79229450219 0.79841420103 0.76186846862 0.74417539951 0.75552860724 0.75810866775 
0.76016606812 0.75427361251 0.7520980899 0.7423023585 0.76013488378 0.77002529827 0.74633668532 0.74283709724 0.75226766321 
0.76734484908 0.7488454934 0.76379891001 0.77546296327 0.74939862239 0.78403248675 0.74243915971 0.77540257148 0.79969005855 
0.77810689716 0.7938592569 0.79056352976 0.75831396916 0.79981048402 0.74629020684 0.78863022496 0.76613871339 0.79269308413 
0.78337498722 0.78047323373 0.7848435507 0.78517278945 0.75923121487 0.76584051754 0.7835492607 0.75759384913 0.74889991475 
0.74257631598 0.74798583489 0.76571650458 0.77763785004 0.7857146416 0.76012679128 0.7537703475 0.79530091215 0.7917262878 
0.7628086117 0.78021755327 0.76163660189 0.7699115616 0.76338123975 0.79265908977 0.74699999223 0.78132731918 0.7752780742 
0.7430056157 0.78603269971 0.79928459932 0.7403855611 0.77451375538 0.77772429625 0.79200917581 0.79789601999 0.78342540385 
0.77779775154 0.7471395528 0.79775158513 0.77435225435 0.77695926845 0.76765651538 0.75714879078 0.76080018679 0.7886321901 
0.7530985018 0.77899036721 0.74154191292 0.78610279219 0.78964768241 0.75806564795 0.77106390479 0.7605713007 0.78427628433 
0.74615235231 0.78839639223 0.77211746053 0.79327845807 0.79958254077 0.79045718301 0.77519300996 0.77096843868 0.75990661755 
0.79489321791 0.76788921058 0.74763635989 0.76422189536 0.74689833702 0.77602390991 0.7895986668 0.75833638778 0.78161627595 
0.76581616059 0.75099212272 0.77918632155 0.75779538574 0.75375467447 0.79761606403 0.77807978571 0.7452866756 0.74351142501 
0.74615716643 0.79164257334 0.79932329676 0.79380599432 0.79974252374 0.77946415422 0.76883131975 0.76447570316 0.78960544458 
0.79369782658 0.76768627929 0.7959385876 0.78159771283 0.79790671932 0.78098609654 0.75204457199 0.74921223584 0.79909874425 
0.79534457435 0.76349391394 0.77289289688 0.7885903297 0.78022469378 0.78453668718 0.76989358739 0.75114362993 0.7833608045 
0.76349458567 0.78046659682 0.78997946709 0.79454781254 0.74002673662 0.74492365562 0.79235108878 0.74933817343 0.78991846586 
0.77539392135 0.74104428525 0.76143117547 0.77787698867 0.74985221316 0.79424721641 0.7550663787 0.75860354583 0.7818828386 
0.77142622953 0.7611146053 0.75182225971 0.77761604724 0.74409771019 0.75166824006 0.77309533381 0.75053889666 0.78660661947 
0.74046582814 0.75270693391 0.79610992359 0.77405480801 0.75400131453 0.78638676875 0.79465813352 0.74212580996 0.74846490754 
0.76281807828 0.74441419157 0.79263852729 0.76825492445 0.75002929924 0.76285240959 0.79579253054 0.75721903749 0.75300581185 
0.76484581035 0.76841598344 0.79872127373 0.76485579478 0.79538348864 0.79825010588 0.74585881447 0.76345496603 0.78235842563 
0.74246923617 0.76123188477 0.77782868243 0.79454559598 0.77478293348 0.78726662953 0.79661090534 0.77167014848 0.75556519125 
0.79835175257 0.77478303082 0.7803664018 0.78589402125 0.74139077279 0.78238539907 0.78705372079 0.78400567003 0.75235718787 
0.75538627382 0.77086305547 0.75543318971 0.78980644611 0.76705083038 0.7471209893 0.76920978398 0.76532067651 0.77236483231 