# vtk DataFile Version 4.2
vtk output
ASCII
DATASET UNSTRUCTURED_GRID
POINTS 2601 double
0 0 0 1 0 0 2 0 0 
3 0 0 4 0 0 5 0 0 
6 0 0 7 0 0 8 0 0 
9 0 0 10 0 0 11 0 0 
12 0 0 13 0 0 14 0 0 
15 0 0 16 0 0 17 0 0 
18 0 0 19 0 0 20 0 0 
21 0 0 22 0 0 23 0 0 
24 0 0 25 0 0 26 0 0 
27 0 0 28 0 0 29 0 0 
30 0 0 31 0 0 32 0 0 
33 0 0 34 0 0 35 0 0 
36 0 0 37 0 0 38 0 0 
39 0 0 40 0 0 41 0 0 
42 0 0 43 0 0 44 0 0 
45 0 0 46 0 0 47 0 0 
48 0 0 49 0 0 50 0 0 
0 1 0 1 1 0 2 1 0 
3 1 0 4 1 0 5 1 0 
6 1 0 7 1 0 8 1 0 
9 1 0 10 1 0 11 1 0 
12 1 0 13 1 0 14 1 0 
15 1 0 16 1 0 17 1 0 
18 1 0 19 1 0 20 1 0 
21 1 0 22 1 0 23 1 0 
24 1 0 25 1 0 26 1 0 
27 1 0 28 1 0 29 1 0 
30 1 0 31 1 0 32 1 0 
33 1 0 34 1 0 35 1 0 
36 1 0 37 1 0 38 1 0 
39 1 0 40 1 0 41 1 0 
42 1 0 43 1 0 44 1 0 
45 1 0 46 1 0 47 1 0 
48 1 0 49 1 0 50 1 0 
0 2 0 1 2 0 2 2 0 
3 2 0 4 2 0 5 2 0 
6 2 0 7 2 0 8 2 0 
9 2 0 10 2 0 11 2 0 
12 2 0 13 2 0 14 2 0 
15 2 0 16 2 0 17 2 0 
18 2 0 19 2 0 20 2 0 
21 2 0 22 2 0 23 2 0 
24 2 0 25 2 0 26 2 0 
27 2 0 28 2 0 29 2 0 
30 2 0 31 2 0 32 2 0 
33 2 0 34 2 0 35 2 0 
36 2 0 37 2 0 38 2 0 
39 2 0 40 2 0 41 2 0 
42 2 0 43 2 0 44 2 0 
45 2 0 46 2 0 47 2 0 
48 2 0 49 2 0 50 2 0 
0 3 0 1 3 0 2 3 0 
3 3 0 4 3 0 5 3 0 
6 3 0 7 3 0 8 3 0 
9 3 0 10 3 0 11 3 0 
12 3 0 13 3 0 14 3 0 
15 3 0 16 3 0 17 3 0 
18 3 0 19 3 0 20 3 0 
21 3 0 22 3 0 23 3 0 
24 3 0 25 3 0 26 3 0 
27 3 0 28 3 0 29 3 0 
30 3 0 31 3 0 32 3 0 
33 3 0 34 3 0 35 3 0 
36 3 0 37 3 0 38 3 0 
39 3 0 40 3 0 41 3 0 
42 3 0 43 3 0 44 3 0 
45 3 0 46 3 0 47 3 0 
48 3 0 49 3 0 50 3 0 
0 4 0 1 4 0 2 4 0 
3 4 0 4 4 0 5 4 0 
6 4 0 7 4 0 8 4 0 
9 4 0 10 4 0 11 4 0 
12 4 0 13 4 0 14 4 0 
15 4 0 16 4 0 17 4 0 
18 4 0 19 4 0 20 4 0 
21 4 0 22 4 0 23 4 0 
24 4 0 25 4 0 26 4 0 
27 4 0 28 4 0 29 4 0 
30 4 0 31 4 0 32 4 0 
33 4 0 34 4 0 35 4 0 
36 4 0 37 4 0 38 4 0 
39 4 0 40 4 0 41 4 0 
42 4 0 43 4 0 44 4 0 
45 4 0 46 4 0 47 4 0 
48 4 0 49 4 0 50 4 0 
0 5 0 1 5 0 2 5 0 
3 5 0 4 5 0 5 5 0 
6 5 0 7 5 0 8 5 0 
9 5 0 10 5 0 11 5 0 
12 5 0 13 5 0 14 5 0 
15 5 0 16 5 0 17 5 0 
18 5 0 19 5 0 20 5 0 
21 5 0 22 5 0 23 5 0 
24 5 0 25 5 0 26 5 0 
27 5 0 28 5 0 29 5 0 
30 5 0 31 5 0 32 5 0 
33 5 0 34 5 0 35 5 0 
36 5 0 37 5 0 38 5 0 
39 5 0 40 5 0 41 5 0 
42 5 0 43 5 0 44 5 0 
45 5 0 46 5 0 47 5 0 
48 5 0 49 5 0 50 5 0 
0 6 0 1 6 0 2 6 0 
3 6 0 4 6 0 5 6 0 
6 6 0 7 6 0 8 6 0 
9 6 0 10 6 0 11 6 0 
12 6 0 13 6 0 14 6 0 
15 6 0 16 6 0 17 6 0 
18 6 0 19 6 0 20 6 0 
21 6 0 22 6 0 23 6 0 
24 6 0 25 6 0 26 6 0 
27 6 0 28 6 0 29 6 0 
30 6 0 31 6 0 32 6 0 
33 6 0 34 6 0 35 6 0 
36 6 0 37 6 0 38 6 0 
39 6 0 40 6 0 41 6 0 
42 6 0 43 6 0 44 6 0 
45 6 0 46 6 0 47 6 0 
48 6 0 49 6 0 50 6 0 
0 7 0 1 7 0 2 7 0 
3 7 0 4 7 0 5 7 0 
6 7 0 7 7 0 8 7 0 
9 7 0 10 7 0 11 7 0 
12 7 0 13 7 0 14 7 0 
15 7 0 16 7 0 17 7 0 
18 7 0 19 7 0 20 7 0 
21 7 0 22 7 0 23 7 0 
24 7 0 25 7 0 26 7 0 
27 7 0 28 7 0 29 7 0 
30 7 0 31 7 0 32 7 0 
33 7 0 34 7 0 35 7 0 
36 7 0 37 7 0 38 7 0 
39 7 0 40 7 0 41 7 0 
42 7 0 43 7 0 44 7 0 
45 7 0 46 7 0 47 7 0 
48 7 0 49 7 0 50 7 0 
0 8 0 1 8 0 2 8 0 
3 8 0 4 8 0 5 8 0 
6 8 0 7 8 0 8 8 0 
9 8 0 10 8 0 11 8 0 
12 8 0 13 8 0 14 8 0 
15 8 0 16 8 0 17 8 0 
18 8 0 19 8 0 20 8 0 
21 8 0 22 8 0 23 8 0 
24 8 0 25 8 0 26 8 0 
27 8 0 28 8 0 29 8 0 
30 8 0 31 8 0 32 8 0 
33 8 0 34 8 0 35 8 0 
36 8 0 37 8 0 38 8 0 
39 8 0 40 8 0 41 8 0 
42 8 0 43 8 0 44 8 0 
45 8 0 46 8 0 47 8 0 
48 8 0 49 8 0 50 8 0 
0 9 0 1 9 0 2 9 0 
3 9 0 4 9 0 5 9 0 
6 9 0 7 9 0 8 9 0 
9 9 0 10 9 0 11 9 0 
12 9 0 13 9 0 14 9 0 
15 9 0 16 9 0 17 9 0 
18 9 0 19 9 0 20 9 0 
21 9 0 22 9 0 23 9 0 
24 9 0 25 9 0 26 9 0 
27 9 0 28 9 0 29 9 0 
30 9 0 31 9 0 32 9 0 
33 9 0 34 9 0 35 9 0 
36 9 0 37 9 0 38 9 0 
39 9 0 40 9 0 41 9 0 
42 9 0 43 9 0 44 9 0 
45 9 0 46 9 0 47 9 0 
48 9 0 49 9 0 50 9 0 
0 10 0 1 10 0 2 10 0 
3 10 0 4 10 0 5 10 0 
6 10 0 7 10 0 8 10 0 
9 10 0 10 10 0 11 10 0 
12 10 0 13 10 0 14 10 0 
15 10 0 16 10 0 17 10 0 
18 10 0 19 10 0 20 10 0 
21 10 0 22 10 0 23 10 0 
24 10 0 25 10 0 26 10 0 
27 10 0 28 10 0 29 10 0 
30 10 0 31 10 0 32 10 0 
33 10 0 34 10 0 35 10 0 
36 10 0 37 10 0 38 10 0 
39 10 0 40 10 0 41 10 0 
42 10 0 43 10 0 44 10 0 
45 10 0 46 10 0 47 10 0 
48 10 0 49 10 0 50 10 0 
0 11 0 1 11 0 2 11 0 
3 11 0 4 11 0 5 11 0 
6 11 0 7 11 0 8 11 0 
9 11 0 10 11 0 11 11 0 
12 11 0 13 11 0 14 11 0 
15 11 0 16 11 0 17 11 0 
18 11 0 19 11 0 20 11 0 
21 11 0 22 11 0 23 11 0 
24 11 0 25 11 0 26 11 0 
27 11 0 28 11 0 29 11 0 
30 11 0 31 11 0 32 11 0 
33 11 0 34 11 0 35 11 0 
36 11 0 37 11 0 38 11 0 
39 11 0 40 11 0 41 11 0 
42 11 0 43 11 0 44 11 0 
45 11 0 46 11 0 47 11 0 
48 11 0 49 11 0 50 11 0 
0 12 0 1 12 0 2 12 0 
3 12 0 4 12 0 5 12 0 
6 12 0 7 12 0 8 12 0 
9 12 0 10 12 0 11 12 0 
12 12 0 13 12 0 14 12 0 
15 12 0 16 12 0 17 12 0 
18 12 0 19 12 0 20 12 0 
21 12 0 22 12 0 23 12 0 
24 12 0 25 12 0 26 12 0 
27 12 0 28 12 0 29 12 0 
30 12 0 31 12 0 32 12 0 
33 12 0 34 12 0 35 12 0 
36 12 0 37 12 0 38 12 0 
39 12 0 40 12 0 41 12 0 
42 12 0 43 12 0 44 12 0 
45 12 0 46 12 0 47 12 0 
48 12 0 49 12 0 50 12 0 
0 13 0 1 13 0 2 13 0 
3 13 0 4 13 0 5 13 0 
6 13 0 7 13 0 8 13 0 
9 13 0 10 13 0 11 13 0 
12 13 0 13 13 0 14 13 0 
15 13 0 16 13 0 17 13 0 
18 13 0 19 13 0 20 13 0 
21 13 0 22 13 0 23 13 0 
24 13 0 25 13 0 26 13 0 
27 13 0 28 13 0 29 13 0 
30 13 0 31 13 0 32 13 0 
33 13 0 34 13 0 35 13 0 
36 13 0 37 13 0 38 13 0 
39 13 0 40 13 0 41 13 0 
42 13 0 43 13 0 44 13 0 
45 13 0 46 13 0 47 13 0 
48 13 0 49 13 0 50 13 0 
0 14 0 1 14 0 2 14 0 
3 14 0 4 14 0 5 14 0 
6 14 0 7 14 0 8 14 0 
9 14 0 10 14 0 11 14 0 
12 14 0 13 14 0 14 14 0 
15 14 0 16 14 0 17 14 0 
18 14 0 19 14 0 20 14 0 
21 14 0 22 14 0 23 14 0 
24 14 0 25 14 0 26 14 0 
27 14 0 28 14 0 29 14 0 
30 14 0 31 14 0 32 14 0 
33 14 0 34 14 0 35 14 0 
36 14 0 37 14 0 38 14 0 
39 14 0 40 14 0 41 14 0 
42 14 0 43 14 0 44 14 0 
45 14 0 46 14 0 47 14 0 
48 14 0 49 14 0 50 14 0 
0 15 0 1 15 0 2 15 0 
3 15 0 4 15 0 5 15 0 
6 15 0 7 15 0 8 15 0 
9 15 0 10 15 0 11 15 0 
12 15 0 13 15 0 14 15 0 
15 15 0 16 15 0 17 15 0 
18 15 0 19 15 0 20 15 0 
21 15 0 22 15 0 23 15 0 
24 15 0 25 15 0 26 15 0 
27 15 0 28 15 0 29 15 0 
30 15 0 31 15 0 32 15 0 
33 15 0 34 15 0 35 15 0 
36 15 0 37 15 0 38 15 0 
39 15 0 40 15 0 41 15 0 
42 15 0 43 15 0 44 15 0 
45 15 0 46 15 0 47 15 0 
48 15 0 49 15 0 50 15 0 
0 16 0 1 16 0 2 16 0 
3 16 0 4 16 0 5 16 0 
6 16 0 7 16 0 8 16 0 
9 16 0 10 16 0 11 16 0 
12 16 0 13 16 0 14 16 0 
15 16 0 16 16 0 17 16 0 
18 16 0 19 16 0 20 16 0 
21 16 0 22 16 0 23 16 0 
24 16 0 25 16 0 26 16 0 
27 16 0 28 16 0 29 16 0 
30 16 0 31 16 0 32 16 0 
33 16 0 34 16 0 35 16 0 
36 16 0 37 16 0 38 16 0 
39 16 0 40 16 0 41 16 0 
42 16 0 43 16 0 44 16 0 
45 16 0 46 16 0 47 16 0 
48 16 0 49 16 0 50 16 0 
0 17 0 1 17 0 2 17 0 
3 17 0 4 17 0 5 17 0 
6 17 0 7 17 0 8 17 0 
9 17 0 10 17 0 11 17 0 
12 17 0 13 17 0 14 17 0 
15 17 0 16 17 0 17 17 0 
18 17 0 19 17 0 20 17 0 
21 17 0 22 17 0 23 17 0 
24 17 0 25 17 0 26 17 0 
27 17 0 28 17 0 29 17 0 
30 17 0 31 17 0 32 17 0 
33 17 0 34 17 0 35 17 0 
36 17 0 37 17 0 38 17 0 
39 17 0 40 17 0 41 17 0 
42 17 0 43 17 0 44 17 0 
45 17 0 46 17 0 47 17 0 
48 17 0 49 17 0 50 17 0 
0 18 0 1 18 0 2 18 0 
3 18 0 4 18 0 5 18 0 
6 18 0 7 18 0 8 18 0 
9 18 0 10 18 0 11 18 0 
12 18 0 13 18 0 14 18 0 
15 18 0 16 18 0 17 18 0 
18 18 0 19 18 0 20 18 0 
21 18 0 22 18 0 23 18 0 
24 18 0 25 18 0 26 18 0 
27 18 0 28 18 0 29 18 0 
30 18 0 31 18 0 32 18 0 
33 18 0 34 18 0 35 18 0 
36 18 0 37 18 0 38 18 0 
39 18 0 40 18 0 41 18 0 
42 18 0 43 18 0 44 18 0 
45 18 0 46 18 0 47 18 0 
48 18 0 49 18 0 50 18 0 
0 19 0 1 19 0 2 19 0 
3 19 0 4 19 0 5 19 0 
6 19 0 7 19 0 8 19 0 
9 19 0 10 19 0 11 19 0 
12 19 0 13 19 0 14 19 0 
15 19 0 16 19 0 17 19 0 
18 19 0 19 19 0 20 19 0 
21 19 0 22 19 0 23 19 0 
24 19 0 25 19 0 26 19 0 
27 19 0 28 19 0 29 19 0 
30 19 0 31 19 0 32 19 0 
33 19 0 34 19 0 35 19 0 
36 19 0 37 19 0 38 19 0 
39 19 0 40 19 0 41 19 0 
42 19 0 43 19 0 44 19 0 
45 19 0 46 19 0 47 19 0 
48 19 0 49 19 0 50 19 0 
0 20 0 1 20 0 2 20 0 
3 20 0 4 20 0 5 20 0 
6 20 0 7 20 0 8 20 0 
9 20 0 10 20 0 11 20 0 
12 20 0 13 20 0 14 20 0 
15 20 0 16 20 0 17 20 0 
18 20 0 19 20 0 20 20 0 
21 20 0 22 20 0 23 20 0 
24 20 0 25 20 0 26 20 0 
27 20 0 28 20 0 29 20 0 
30 20 0 31 20 0 32 20 0 
33 20 0 34 20 0 35 20 0 
36 20 0 37 20 0 38 20 0 
39 20 0 40 20 0 41 20 0 
42 20 0 43 20 0 44 20 0 
45 20 0 46 20 0 47 20 0 
48 20 0 49 20 0 50 20 0 
0 21 0 1 21 0 2 21 0 
3 21 0 4 21 0 5 21 0 
6 21 0 7 21 0 8 21 0 
9 21 0 10 21 0 11 21 0 
12 21 0 13 21 0 14 21 0 
15 21 0 16 21 0 17 21 0 
18 21 0 19 21 0 20 21 0 
21 21 0 22 21 0 23 21 0 
24 21 0 25 21 0 26 21 0 
27 21 0 28 21 0 29 21 0 
30 21 0 31 21 0 32 21 0 
33 21 0 34 21 0 35 21 0 
36 21 0 37 21 0 38 21 0 
39 21 0 40 21 0 41 21 0 
42 21 0 43 21 0 44 21 0 
45 21 0 46 21 0 47 21 0 
48 21 0 49 21 0 50 21 0 
0 22 0 1 22 0 2 22 0 
3 22 0 4 22 0 5 22 0 
6 22 0 7 22 0 8 22 0 
9 22 0 10 22 0 11 22 0 
12 22 0 13 22 0 14 22 0 
15 22 0 16 22 0 17 22 0 
18 22 0 19 22 0 20 22 0 
21 22 0 22 22 0 23 22 0 
24 22 0 25 22 0 26 22 0 
27 22 0 28 22 0 29 22 0 
30 22 0 31 22 0 32 22 0 
33 22 0 34 22 0 35 22 0 
36 22 0 37 22 0 38 22 0 
39 22 0 40 22 0 41 22 0 
42 22 0 43 22 0 44 22 0 
45 22 0 46 22 0 47 22 0 
48 22 0 49 22 0 50 22 0 
0 23 0 1 23 0 2 23 0 
3 23 0 4 23 0 5 23 0 
6 23 0 7 23 0 8 23 0 
9 23 0 10 23 0 11 23 0 
12 23 0 13 23 0 14 23 0 
15 23 0 16 23 0 17 23 0 
18 23 0 19 23 0 20 23 0 
21 23 0 22 23 0 23 23 0 
24 23 0 25 23 0 26 23 0 
27 23 0 28 23 0 29 23 0 
30 23 0 31 23 0 32 23 0 
33 23 0 34 23 0 35 23 0 
36 23 0 37 23 0 38 23 0 
39 23 0 40 23 0 41 23 0 
42 23 0 43 23 0 44 23 0 
45 23 0 46 23 0 47 23 0 
48 23 0 49 23 0 50 23 0 
0 24 0 1 24 0 2 24 0 
3 24 0 4 24 0 5 24 0 
6 24 0 7 24 0 8 24 0 
9 24 0 10 24 0 11 24 0 
12 24 0 13 24 0 14 24 0 
15 24 0 16 24 0 17 24 0 
18 24 0 19 24 0 20 24 0 
21 24 0 22 24 0 23 24 0 
24 24 0 25 24 0 26 24 0 
27 24 0 28 24 0 29 24 0 
30 24 0 31 24 0 32 24 0 
33 24 0 34 24 0 35 24 0 
36 24 0 37 24 0 38 24 0 
39 24 0 40 24 0 41 24 0 
42 24 0 43 24 0 44 24 0 
45 24 0 46 24 0 47 24 0 
48 24 0 49 24 0 50 24 0 
0 25 0 1 25 0 2 25 0 
3 25 0 4 25 0 5 25 0 
[...]
CELL_DATA 2500
SCALARS $\mu_{AB} double
LOOKUP_TABLE default
-0.0021030888552 -0.0019317086138 -0.0017613854489 -0.0019502661866 -0.0022967156976 -0.002492855235 -0.0023424448553 -0.0019521420283 -0.001643968097 
-0.0016208898586 -0.001856739614 -0.0021315248088 -0.002173139292 -0.0015091001395 -0.00087978016332 -0.00060645064432 -0.00054080800606 -0.00051593420367 
-0.00065572079889 -0.0010284521345 -0.0015535919966 -0.0014221965758 -0.0012775703962 -0.0011878998946 -0.001068320446 -0.0011507095237 -0.001621314714 
-0.0018100679465 -0.0017397204688 -0.0017635379366 -0.0018499444108 -0.0018243174398 -0.0015984965115 -0.0015044406246 -0.0015875587076 -0.0015470974584 
-0.0012737521407 -0.001130286449 -0.0010241298165 -0.0010621180577 -0.0015946997509 -0.0022495909507 -0.0024895273821 -0.002438594221 -0.0021326413255 
-0.0016852384859 -0.0013545822618 -0.0013496414506 -0.0016428148528 -0.0019934586846 -0.0022821322027 -0.0022456281786 -0.0021087874891 -0.0022018635869 
-0.0024479537329 -0.0025684257557 -0.0023850707456 -0.0020040153211 -0.0017046587487 -0.0016725076007 -0.0018839503868 -0.0021551823982 -0.0022740639513 
-0.0019614077256 -0.0012898049757 -0.0010235855327 -0.00096758881377 -0.00092278524117 -0.001077553234 -0.0015413050504 -0.0018727627898 -0.0018419760935 
-0.0016626165981 -0.001592114064 -0.0015575586469 -0.001775176012 -0.0017293533582 -0.001399426021 -0.0011673573396 -0.0011326856592 -0.0012646904842 
-0.0016528395271 -0.0020383596543 -0.0021371138735 -0.001844026656 -0.0012955328196 -0.00092510928779 -0.00074351609704 -0.0006407374748 -0.00072629666195 
-0.0011054623229 -0.0019139524702 -0.0024027771859 -0.0023619242242 -0.0019923936657 -0.0014812107901 -0.001095075912 -0.0011295246077 -0.0015331817836 
-0.0020030404887 -0.0023305283676 -0.0020607172197 -0.0016507191559 -0.001675268161 -0.0019953345079 -0.0023338017314 -0.0023749702986 -0.0021386922744 
-0.0018948974465 -0.001832549561 -0.0019555375675 -0.0021689715575 -0.0023322546416 -0.0022780117608 -0.0019402501069 -0.0016336814399 -0.0015264459412 
-0.0014695522278 -0.0015426241727 -0.0016208308553 -0.0017412619882 -0.0018822627671 -0.0020037908942 -0.0020998181585 -0.0021984888962 -0.0021319899021 
-0.0016502935228 -0.0011468376964 -0.0007081581205 -0.00056981347006 -0.00082718740096 -0.0013878371597 -0.0020683630464 -0.0023769967073 -0.0019332687581 
-0.0012502156659 -0.00079516163106 -0.00067046612109 -0.00064616418889 -0.00074256573382 -0.0011110268829 -0.0016457373149 -0.0022451975071 -0.0022897385208 
-0.0019740923228 -0.0015238663911 -0.0012223329233 -0.0012929744623 -0.0017039451027 -0.0021503080332 -0.0022198594655 -0.0015769974004 -0.0010345470285 
-0.00098926628095 -0.0013050525128 -0.0018220967161 -0.0021969996187 -0.0021911733387 -0.0019494735742 -0.0017350864427 -0.0016948844633 -0.0018119239962 
-0.0021388166845 -0.0023669580537 -0.0023384334699 -0.0021563564567 -0.001952947269 -0.0017440255414 -0.0015517469007 -0.0014015196067 -0.0013603105855 
-0.0014585164213 -0.0017154173397 -0.0020956682565 -0.0023540349216 -0.0022462114398 -0.0017075363077 -0.0011480152877 -0.00062069967685 -0.00042445180217 
-0.0007655720407 -0.0014400672004 -0.0022020343302 -0.0025721068587 -0.002191431261 -0.0013203015673 -0.00076451128218 -0.00057221778793 -0.0007333608081 
-0.00090922018598 -0.0012470834948 -0.0016184737818 -0.0019513636615 -0.0020482251323 -0.0019945693248 -0.0017546763632 -0.001595144905 -0.0017036551455 
-0.0020273670766 -0.0023223560457 -0.0019709795771 -0.001202007768 -0.00055774480485 -0.00041247839246 -0.0008196765378 -0.0014133222882 -0.0018933522085 
-0.0019857845917 -0.00155554304 -0.0012308267807 -0.0011521042238 -0.0012248453166 -0.0016202107684 -0.0022280438593 -0.0024515692614 -0.0023482366084 
-0.0020892250456 -0.0017410956776 -0.0013639278155 -0.0010563217634 -0.0009231381035 -0.0010190252061 -0.0013226649259 -0.0017784211213 -0.0022248343092 
-0.0023286566848 -0.0018877061752 -0.0013088665788 -0.00086928506353 -0.00073745219635 -0.0010130590746 -0.0017191164062 -0.0024834151419 -0.0027863492198 
-0.002562103844 -0.0016995683697 -0.00093929291713 -0.00075697208405 -0.00089650519539 -0.0011380705332 -0.0014585552744 -0.0015576911631 -0.0013921360494 
-0.0013580415332 -0.0015986533589 -0.0019002530461 -0.0019734272502 -0.0020973149934 -0.0023071469656 -0.0023847786607 -0.0018673381382 -0.0011587616332 
-0.0005402546583 -0.00039833607719 -0.00079503692141 -0.0013454583781 -0.0017670701643 -0.0016526893526 -0.0012036236938 -0.0008563204849 -0.00074390712209 
-0.00087298946665 -0.0012872586987 -0.0019262015374 -0.0024257229216 -0.0024044724949 -0.0021311473339 -0.0017321418142 -0.0012914808022 -0.00091704292812 
-0.00071905200038 -0.0008090903657 -0.0011850452036 -0.0016782264204 -0.0021390031502 -0.0023898193968 -0.0021980907469 -0.0016748291063 -0.0012826776658 
-0.0011849460809 -0.0014747222383 -0.0021851002677 -0.0027283835673 -0.0029014957606 -0.0027671613 -0.002281334971 -0.0014460089743 -0.0010979815091 
-0.0012524971804 -0.0015336369569 -0.0016597218481 -0.0013303270703 -0.0010261344537 -0.00094556113953 -0.0011764009836 -0.0016824264533 -0.0021518475513 
-0.0023314568571 -0.0024202348999 -0.0023568358652 -0.0020059250503 -0.0014381558053 -0.0010046273105 -0.00094137992303 -0.0011601652903 -0.0015881379438 
-0.0019212781433 -0.001585106583 -0.0011771669268 -0.00081312226527 -0.00071947740392 -0.00083699249748 -0.0012404944334 -0.0017586298402 -0.0023332283898 
-0.0023951106683 -0.0021790818183 -0.0018228354588 -0.0014075606203 -0.00106837124 -0.00093369354308 -0.0010522720025 -0.0014077205545 -0.0018714032453 
-0.0022709058289 -0.0024448348082 -0.0022349501313 -0.0017655246034 -0.0014317612415 -0.001367294246 -0.0017547971988 -0.0023830294873 -0.0027504204729 
-0.0028399664097 -0.0026859494176 -0.002304998279 -0.0018927016002 -0.0017359794573 -0.0018572550794 -0.0019386540856 -0.0016617378761 -0.0011833807785 
-0.00074149023146 -0.00065931082428 -0.0010431376034 -0.0015877807042 -0.0021098811421 -0.0023117519916 -0.0023076284693 -0.0022858008975 -0.0021241208383 
-0.0019312316864 -0.0016334641334 -0.0015752906852 -0.0017085744955 -0.002018692237 -0.0021581262284 -0.0017499837994 -0.0013004657092 -0.00099151224597 
-0.00091009434891 -0.00097842644363 -0.0012824724097 -0.001727191838 -0.0021609737455 -0.002161995278 -0.0020207695807 -0.001846385941 -0.0016098967429 
-0.0013745161565 -0.0013427402393 -0.0015244518194 -0.001844855982 -0.0022126964227 -0.0024765029755 -0.0024182164888 -0.0019311784661 -0.0014003790295 
-0.0011086247976 -0.0010353447555 -0.0013266407274 -0.002057271869 -0.0025333145965 -0.0025476118559 -0.0021583083342 -0.0016323720548 -0.0015066420229 
-0.0016647892131 -0.0020256086911 -0.002075729735 -0.0016760704123 -0.0011527989266 -0.00071727515619 -0.00071520564612 -0.0011444312104 -0.0016937521064 
-0.0021017915502 -0.0020573823839 -0.0019300746821 -0.001984301296 -0.0018296853076 -0.0021414704372 -0.0021091832241 -0.0020122816069 -0.00201128039 
-0.0020963950961 -0.0022036395455 -0.0020483254374 -0.0016073387984 -0.001325428972 -0.0012508140826 -0.0012549064562 -0.0014588037999 -0.0017694361473 
-0.0017720502067 -0.0015600111321 -0.0014564204875 -0.001450302382 -0.0015914706702 -0.0016462004471 -0.0016503208531 -0.0018028723055 -0.0020860497548 
-0.0023767729583 -0.0025072162771 -0.0022137991424 -0.0016075076312 -0.0010540027822 -0.00070467102485 -0.00067682835426 -0.0010158627776 -0.0015473441228 
-0.0021240724153 -0.0019234323024 -0.0012728904618 -0.0010066070892 -0.0010830006441 -0.0013261664088 -0.0017516275182 -0.0020723333387 -0.0017579431986 
-0.0012299543355 -0.00092075176759 -0.00096556052379 -0.0013195437435 -0.0018163945228 -0.0019427636889 -0.0016007851599 -0.00140534566 -0.0014759870825 
-0.0013947071091 -0.001877949903 -0.0020453159939 -0.0017891905123 -0.0016569332719 -0.0016757162379 -0.001875144128 -0.0020955689549 -0.0019952346651 
-0.0016762371934 -0.0015253041138 -0.0015052391884 -0.0016391774516 -0.0015833457551 -0.0013661350612 -0.0012529104567 -0.0012017744906 -0.0011880364904 
-0.0012646673709 -0.0014292245157 -0.0013713243301 -0.0014429077569 -0.0016950271862 -0.0019828796463 -0.0022242947131 -0.0019550344546 -0.0013996066243 
-0.00090391756571 -0.00061188066838 -0.00066813790525 -0.0010726668907 -0.0015236508796 -0.0018568827935 -0.0013334743655 -0.00081693807362 -0.00054232985025 
-0.00068479455045 -0.0010233779617 -0.0014799823569 -0.0018766234894 -0.0019311595554 -0.0014577849749 -0.0011370711252 -0.001199791465 -0.0015541557494 
-0.0018627127157 -0.0015730465491 -0.0011064953487 -0.00081366243084 -0.00092142792647 -0.0010926542349 -0.0015386901206 -0.0015765600048 -0.0012966456939 
-0.0011828234623 -0.0012276895615 -0.0014671385225 -0.0018168407651 -0.0020448585444 -0.0018777821173 -0.0016534594342 -0.0015184894907 -0.0014552125444 
-0.0013048083115 -0.0011894686069 -0.0010967240971 -0.0010584775548 -0.0010757386576 -0.0011132423857 -0.0010717760265 -0.00095323030083 -0.001059292716 
-0.0012186618628 -0.0013410591075 -0.0016091710219 -0.0017327324955 -0.0013081265643 -0.00093495328555 -0.00081700573989 -0.00097621344958 -0.0013622178034 
-0.0018339106022 -0.0020056052924 -0.001390915486 -0.0008299121875 -0.0004555968542 -0.0005552115113 -0.00083343889204 -0.001262710116 -0.0016471387519 
-0.0018551156495 -0.0016120407145 -0.0013659665432 -0.0014265469626 -0.0017142896598 -0.0017181187926 -0.0012729617814 -0.00081244223216 -0.00042906770764 
-0.00057247658045 -0.0010869139298 -0.0014315293924 -0.0012839663333 -0.00098725852781 -0.00079335208728 -0.00088947797349 -0.001221076522 -0.0015217100502 
-0.0017456901227 -0.0015071968572 -0.0013879771164 -0.0012688356592 -0.0011112535002 -0.0011239851677 -0.0011038003507 -0.0010495866417 -0.001074666536 
-0.001090909507 -0.001089757682 -0.00091311096064 -0.00076845667663 -0.0007899960664 -0.00089812710586 -0.00096401302005 -0.0011314425214 -0.0014718688052 
-0.0014846311198 -0.0011966730086 -0.0011990887123 -0.001441232317 -0.0018612453882 -0.0023391625989 -0.0023809843088 -0.0017929839691 -0.0011505425956 
-0.00075678114923 -0.00065910071066 -0.00079418201751 -0.0011159871871 -0.0014769545046 -0.0014495601085 -0.001212644393 -0.0010429032753 -0.001058844496 
-0.0014688950206 -0.0016020715441 -0.0012573625931 -0.00089963868641 -0.00061654877995 -0.00068895074488 -0.0014707458727 -0.001645719198 -0.001309037729 
-0.00096790380707 -0.00074843602366 -0.00083363244735 -0.0011446177376 -0.001367387717 -0.0013501216549 -0.0011807835495 -0.0011309317207 -0.001030112432 
-0.00088849616505 -0.00092878161842 -0.0010469862821 -0.0010803426571 -0.0011401152383 -0.0011661648108 -0.0011351537291 -0.000919996073 -0.00077218698287 
-0.00075896937301 -0.00079861362061 -0.00080069637601 -0.00094449033023 -0.0012799841034 -0.0016342424576 -0.0015141945367 -0.0014901219957 -0.0018056172696 
-0.0022947422427 -0.002669987415 -0.0027123154758 -0.0023506988124 -0.0017497647451 -0.0013339629461 -0.0011145143706 -0.0010763228367 -0.0012746644873 
-0.0012981161997 -0.0011598007554 -0.0010465021558 -0.00090952773818 -0.00082970369531 -0.00098681226916 -0.0015145967496 -0.0015941341577 -0.0013840538648 
-0.0012202996978 -0.0012208618187 -0.0020028624116 -0.0020287087297 -0.0016379562135 -0.0012593783881 -0.0011006695982 -0.0011089800122 -0.0012825984451 
-0.0013972308261 -0.0010818465849 -0.00093296601215 -0.00091392968963 -0.00084956647365 -0.00072439594244 -0.00079981392093 -0.0010217742466 -0.0011799034605 
-0.0012734769918 -0.0013066962526 -0.00125253339 -0.0010055890416 -0.00087852591523 -0.00087934506863 -0.00081279957873 -0.00078675115313 -0.00090444906698 
-0.0012401713783 -0.0014707543595 -0.0012361309959 -0.0012293882177 -0.0016052498494 -0.0021605909773 -0.0026254131177 -0.0028029273332 -0.002700044251 
-0.0023438583792 -0.0019231922757 -0.0016326019683 -0.0015683325749 -0.0014266570612 -0.0011489749226 -0.0010338512759 -0.00094732786894 -0.0007787949804 
-0.00071545232603 -0.00086600632651 -0.0013178341656 -0.0019812494643 -0.0019987873244 -0.0019004965702 -0.001871464466 -0.0023288511342 -0.0022877887477 
-0.0020970464809 -0.0017889827042 -0.0016184275511 -0.0015831284136 -0.0016961529506 -0.0016101842601 -0.0009742442661 -0.00077901853058 -0.0006905683671 
-0.00074633747663 -0.00072780049723 -0.00085013412808 -0.0010477172834 -0.0013554803626 -0.0014756805767 -0.0015930635419 -0.0016329688929 -0.0012756062214 
-0.0010911215596 -0.0010481087243 -0.00099069788687 -0.00094986285691 -0.0010755626944 -0.0012836078612 -0.0010060556565 -0.00078352982671 -0.00089400183787 
-0.0011808326761 -0.0015838709242 -0.0021832403411 -0.0026041189872 -0.00265483342 -0.002458130337 -0.0021831342515 -0.0019587143385 -0.0017885804205 
-0.0013644099998 -0.0010437917666 -0.00093356766482 -0.00089923539777 -0.00075963183912 -0.00072358500408 -0.0009132754234 -0.0013136919027 -0.0021868849958 
-0.0024200874067 -0.0023833989662 -0.0023271311302 -0.0023977344671 -0.0023398596559 -0.0022822055198 -0.0022088249024 -0.0021499017646 -0.0021574241806 
-0.0022010275416 -0.0019784955552 -0.0011643573729 -0.00081871255836 -0.00075786020157 -0.0008500837388 -0.00092896288296 -0.0010846683232 -0.0014164744207 
-0.0017657790249 -0.0018534473056 -0.0019673675221 -0.002065170094 -0.0019083642129 -0.0015526669039 -0.0014410345739 -0.0013791884834 -0.001395039922 
-0.0016144378065 -0.0012778002497 -0.00087059578175 -0.00062257822959 -0.00064470864396 -0.00089248310844 -0.0012017613514 -0.0016151195897 -0.002134872282 
-0.0021897157128 -0.0019027487144 -0.0016734160724 -0.0014564311796 -0.001462482614 -0.0012118672134 -0.00092541597202 -0.00083780752031 -0.0007924346921 
-0.00081854280031 -0.00081459489275 -0.00098817273201 -0.0013973811345 -0.0022663806822 -0.0025624717126 -0.0025547077283 -0.0024698043079 -0.002297443649 
-0.0022955741946 -0.0023010744488 -0.0023279083907 -0.002378806783 -0.0024267932806 -0.002404843306 -0.0022336776936 -0.0017913389702 -0.0011977575929 
-0.0011193972316 -0.001228825246 -0.0013233917174 -0.0015347732817 -0.001827354232 -0.0017506856046 -0.0016064856179 -0.0017152012039 -0.0020578312124 
-0.002316581524 -0.0023012135309 -0.0021634803511 -0.0021243486554 -0.0021973896998 -0.0020638125176 -0.0014608087876 -0.0010463687905 -0.00070383947561 
-0.00065913432474 -0.00082789454202 -0.0010086287948 -0.0012640717068 -0.0015800520447 -0.0014684211465 -0.0013352523139 -0.0012260354464 -0.0010294648976 
-0.00094340160401 -0.0010212503072 -0.00092273831673 -0.00084509088098 -0.00083699859773 -0.00086712916517 -0.00091868220794 -0.0010965649085 -0.0016117581041 
-0.0022741547126 -0.0024500884386 -0.0024013969886 -0.0023226626147 -0.002028692876 -0.0022102972715 -0.002303307121 -0.0023676555707 -0.00242761666 
-0.0024292466411 -0.0023049744064 -0.0021382351003 -0.0020160463646 -0.0018630846019 -0.0016596602983 -0.001732713929 -0.0018887987047 -0.0020548559445 
-0.0017871042984 -0.0013308297695 -0.0011661058973 -0.0012327135447 -0.0015817866226 -0.0022169939784 -0.0025988867996 -0.0026604844312 -0.0026100171054 
-0.0025230506402 -0.002291901803 -0.0017217853786 -0.0012525333314 -0.00090570139091 -0.00075707815647 -0.00071846433893 -0.00086078483818 -0.0010212585599 
-0.0011267587833 -0.001016309312 -0.00093841316066 -0.00086760377051 -0.00071552962916 -0.00068823839852 -0.00081587912686 -0.0012171200293 -0.0011243725001 
-0.001093201688 -0.0011335422014 -0.0011865573969 -0.0014555078668 -0.0019306442827 -0.002085447715 -0.0019076389509 -0.0017607829629 -0.001819132397 
-0.0015445637388 -0.002024802197 -0.0022929604346 -0.0023933673346 -0.0023930731254 -0.0022194221084 -0.001909906109 -0.0017317185549 -0.0017471056831 
-0.0019553548108 -0.002195746598 -0.0023527006456 -0.0024069484565 -0.0021346525995 -0.0014855354755 -0.00094960663629 -0.00071862993336 -0.00074852265331 
-0.001092120154 -0.0017749269263 -0.0024763523689 -0.0026701403962 -0.0025306387364 -0.002319534917 -0.002175531738 -0.0019005876112 -0.0014170879205 
-0.001049965229 -0.00085427526743 -0.0007784837323 -0.00086330391111 -0.0010297925974 -0.00090690093515 -0.00080821525182 -0.00071082340704 -0.00072958377549 
-0.0006333125148 -0.00071580682816 -0.00091064351981 -0.0016246987696 -0.0018963411066 -0.0018193037945 -0.0017642104839 -0.0018530270137 -0.0020355903614 
-0.0019923971047 -0.0015452532086 -0.001130475668 -0.001041947697 -0.0011587867474 -0.001067601059 -0.0016977917727 -0.0022112708131 -0.0023518068841 
-0.002209932535 -0.0017948317606 -0.0013613737488 -0.0011642361412 -0.0012747062454 -0.0016615209576 -0.0021501702879 -0.0024962874833 -0.0025175698945 
-0.0020493377919 -0.0013519959306 -0.00074652693395 -0.00045831519672 -0.00041609863383 -0.00079264154234 -0.0014506699038 -0.0021795123049 -0.0023318616563 
-0.0019586665802 -0.0016837148254 -0.0016485524989 -0.0017376545256 -0.0016614768697 -0.0012960966094 -0.0010592262284 -0.00095655359045 -0.0011317533756 
-0.0013246896439 -0.00094281078642 -0.00076434273203 -0.0006827667587 -0.00077946016207 -0.0008255025203 -0.00091369917797 -0.0012080351856 -0.0019572109769 
-0.0022110094452 -0.0021667419536 -0.0021390123786 -0.0022086628575 -0.0022194718389 -0.0018065730222 -0.0011594077056 -0.00072360017866 -0.00053880606211 
-0.00062186025304 -0.00085950767437 -0.0014254353353 -0.0020710212244 -0.0021833314074 -0.0018918322833 -0.0014066653968 -0.00093318838248 -0.00067367523648 
-0.00089180967965 -0.0014308084665 -0.002020809684 -0.0024661113647 -0.0025434570759 -0.0021041732932 -0.0013453261545 -0.00070026048844 -0.00032820639471 
-0.00030672222768 -0.00071166741996 -0.0013387827697 -0.0019768460761 -0.001817135817 -0.0012940042566 -0.00099161013245 -0.0010441806877 -0.0013432702884 
-0.0016668179955 -0.0017376911023 -0.0015551713912 -0.0014393321097 -0.0014585378738 -0.0014730556585 -0.001228059402 -0.00089553993319 -0.00083687387056 
-0.00094214534273 -0.0010496962899 -0.0011931271613 -0.0016146588375 -0.0021428226281 -0.0021358720703 -0.0019846792651 -0.0019317201425 -0.0020399834716 
-0.0021357924806 -0.001712297368 -0.0011696816378 -0.00067882413287 -0.00042045915084 -0.00042294925437 -0.00091293504698 -0.0014501260523 -0.0019650951196 
-0.0018883019105 -0.0016226875729 -0.0012609639739 -0.00086326039067 -0.00066605542715 -0.00089819974248 -0.0014551874023 -0.0020697887487 -0.0024952702104 
-0.0026141526854 -0.0023698233095 -0.0016323338933 -0.00098567282945 -0.00074451474173 -0.00078649063634 -0.0011117867375 -0.0017290678983 -0.0020706422642 
-0.0016025320457 -0.00098363599592 -0.00053256611986 -0.00065425026609 -0.0011731824224 -0.0016352227824 -0.0019133518496 -0.0017288905709 -0.0012965362942 
-0.0011783380072 -0.0012136922797 -0.0013094134976 -0.0012660353086 -0.0011646048552 -0.0012984709962 -0.0014223967918 -0.0016268704505 -0.0020498566631 
-0.0021246916573 -0.0018844063968 -0.0015956615583 -0.0015099925798 -0.0016962600659 -0.0019573469576 -0.001804160643 -0.0013219237939 -0.00086104165186 
-0.00061295262947 -0.0005853814403 -0.0013355783302 -0.0018684425502 -0.0018712660787 -0.0016276307757 -0.0014359477251 -0.0013007365956 -0.001143644346 
-0.0010889820133 -0.0013052499539 -0.0017928711802 -0.0022929590367 -0.0025799867832 -0.0026773086262 -0.0025803148086 -0.0021662549821 -0.0015543125638 
-0.0013880148825 -0.0015613801556 -0.0019651620487 -0.0023864255351 -0.002367883281 -0.0017941967788 -0.001106075121 -0.00066797518283 -0.00078296440423 
-0.0012760195854 -0.0017469111648 -0.0019179160665 -0.0014170157051 -0.0010535037043 -0.0009989139341 -0.001051521814 -0.0011916506076 -0.0014801702452 
-0.0017455641846 -0.0018261830361 -0.0019426968988 -0.0021049680575 -0.0021873999815 -0.0020468469012 -0.0016956655476 -0.0013150832139 -0.001211720252 
-0.0014782932781 -0.0018671289898 -0.0020143176407 -0.0016317280147 -0.0012417436782 -0.0010671434869 -0.0010375368014 -0.0020316169179 -0.0020928279284 