# vtk DataFile Version 4.2
vtk output
ASCII
DATASET UNSTRUCTURED_GRID
POINTS 2601 double
0 0 0 1 0 0 2 0 0 
3 0 0 4 0 0 5 0 0 
6 0 0 7 0 0 8 0 0 
9 0 0 10 0 0 11 0 0 
12 0 0 13 0 0 14 0 0 
15 0 0 16 0 0 17 0 0 
18 0 0 19 0 0 20 0 0 
21 0 0 22 0 0 23 0 0 
24 0 0 25 0 0 26 0 0 
27 0 0 28 0 0 29 0 0 
30 0 0 31 0 0 32 0 0 
33 0 0 34 0 0 35 0 0 
36 0 0 37 0 0 38 0 0 
39 0 0 40 0 0 41 0 0 
42 0 0 43 0 0 44 0 0 
45 0 0 46 0 0 47 0 0 
48 0 0 49 0 0 50 0 0 
0 1 0 1 1 0 2 1 0 
3 1 0 4 1 0 5 1 0 
6 1 0 7 1 0 8 1 0 
9 1 0 10 1 0 11 1 0 
12 1 0 13 1 0 14 1 0 
15 1 0 16 1 0 17 1 0 
18 1 0 19 1 0 20 1 0 
21 1 0 22 1 0 23 1 0 
24 1 0 25 1 0 26 1 0 
27 1 0 28 1 0 29 1 0 
30 1 0 31 1 0 32 1 0 
33 1 0 34 1 0 35 1 0 
36 1 0 37 1 0 38 1 0 
39 1 0 40 1 0 41 1 0 
42 1 0 43 1 0 44 1 0 
45 1 0 46 1 0 47 1 0 
48 1 0 49 1 0 50 1 0 
0 2 0 1 2 0 2 2 0 
3 2 0 4 2 0 5 2 0 
6 2 0 7 2 0 8 2 0 
9 2 0 10 2 0 11 2 0 
12 2 0 13 2 0 14 2 0 
15 2 0 16 2 0 17 2 0 
18 2 0 19 2 0 20 2 0 
21 2 0 22 2 0 23 2 0 
24 2 0 25 2 0 26 2 0 
27 2 0 28 2 0 29 2 0 
30 2 0 31 2 0 32 2 0 
33 2 0 34 2 0 35 2 0 
36 2 0 37 2 0 38 2 0 
39 2 0 40 2 0 41 2 0 
42 2 0 43 2 0 44 2 0 
45 2 0 46 2 0 47 2 0 
48 2 0 49 2 0 50 2 0 
0 3 0 1 3 0 2 3 0 
3 3 0 4 3 0 5 3 0 
6 3 0 7 3 0 8 3 0 
9 3 0 10 3 0 11 3 0 
12 3 0 13 3 0 14 3 0 
15 3 0 16 3 0 17 3 0 
18 3 0 19 3 0 20 3 0 
21 3 0 22 3 0 23 3 0 
24 3 0 25 3 0 26 3 0 
27 3 0 28 3 0 29 3 0 
30 3 0 31 3 0 32 3 0 
33 3 0 34 3 0 35 3 0 
36 3 0 37 3 0 38 3 0 
39 3 0 40 3 0 41 3 0 
42 3 0 43 3 0 44 3 0 
45 3 0 46 3 0 47 3 0 
48 3 0 49 3 0 50 3 0 
0 4 0 1 4 0 2 4 0 
3 4 0 4 4 0 5 4 0 
6 4 0 7 4 0 8 4 0 
9 4 0 10 4 0 11 4 0 
12 4 0 13 4 0 14 4 0 
15 4 0 16 4 0 17 4 0 
18 4 0 19 4 0 20 4 0 
21 4 0 22 4 0 23 4 0 
24 4 0 25 4 0 26 4 0 
27 4 0 28 4 0 29 4 0 
30 4 0 31 4 0 32 4 0 
33 4 0 34 4 0 35 4 0 
36 4 0 37 4 0 38 4 0 
39 4 0 40 4 0 41 4 0 
42 4 0 43 4 0 44 4 0 
45 4 0 46 4 0 47 4 0 
48 4 0 49 4 0 50 4 0 
0 5 0 1 5 0 2 5 0 
3 5 0 4 5 0 5 5 0 
6 5 0 7 5 0 8 5 0 
9 5 0 10 5 0 11 5 0 
12 5 0 13 5 0 14 5 0 
15 5 0 16 5 0 17 5 0 
18 5 0 19 5 0 20 5 0 
21 5 0 22 5 0 23 5 0 
24 5 0 25 5 0 26 5 0 
27 5 0 28 5 0 29 5 0 
30 5 0 31 5 0 32 5 0 
33 5 0 34 5 0 35 5 0 
36 5 0 37 5 0 38 5 0 
39 5 0 40 5 0 41 5 0 
42 5 0 43 5 0 44 5 0 
45 5 0 46 5 0 47 5 0 
48 5 0 49 5 0 50 5 0 
0 6 0 1 6 0 2 6 0 
3 6 0 4 6 0 5 6 0 
6 6 0 7 6 0 8 6 0 
9 6 0 10 6 0 11 6 0 
12 6 0 13 6 0 14 6 0 
15 6 0 16 6 0 17 6 0 
18 6 0 19 6 0 20 6 0 
21 6 0 22 6 0 23 6 0 
24 6 0 25 6 0 26 6 0 
27 6 0 28 6 0 29 6 0 
30 6 0 31 6 0 32 6 0 
33 6 0 34 6 0 35 6 0 
36 6 0 37 6 0 38 6 0 
39 6 0 40 6 0 41 6 0 
42 6 0 43 6 0 44 6 0 
45 6 0 46 6 0 47 6 0 
48 6 0 49 6 0 50 6 0 
0 7 0 1 7 0 2 7 0 
3 7 0 4 7 0 5 7 0 
6 7 0 7 7 0 8 7 0 
9 7 0 10 7 0 11 7 0 
12 7 0 13 7 0 14 7 0 
15 7 0 16 7 0 17 7 0 
18 7 0 19 7 0 20 7 0 
21 7 0 22 7 0 23 7 0 
24 7 0 25 7 0 26 7 0 
27 7 0 28 7 0 29 7 0 
30 7 0 31 7 0 32 7 0 
33 7 0 34 7 0 35 7 0 
36 7 0 37 7 0 38 7 0 
39 7 0 40 7 0 41 7 0 
42 7 0 43 7 0 44 7 0 
45 7 0 46 7 0 47 7 0 
48 7 0 49 7 0 50 7 0 
0 8 0 1 8 0 2 8 0 
3 8 0 4 8 0 5 8 0 
6 8 0 7 8 0 8 8 0 
9 8 0 10 8 0 11 8 0 
12 8 0 13 8 0 14 8 0 
15 8 0 16 8 0 17 8 0 
18 8 0 19 8 0 20 8 0 
21 8 0 22 8 0 23 8 0 
24 8 0 25 8 0 26 8 0 
27 8 0 28 8 0 29 8 0 
30 8 0 31 8 0 32 8 0 
33 8 0 34 8 0 35 8 0 
36 8 0 37 8 0 38 8 0 
39 8 0 40 8 0 41 8 0 
42 8 0 43 8 0 44 8 0 
45 8 0 46 8 0 47 8 0 
48 8 0 49 8 0 50 8 0 
0 9 0 1 9 0 2 9 0 
3 9 0 4 9 0 5 9 0 
6 9 0 7 9 0 8 9 0 
9 9 0 10 9 0 11 9 0 
12 9 0 13 9 0 14 9 0 
15 9 0 16 9 0 17 9 0 
18 9 0 19 9 0 20 9 0 
21 9 0 22 9 0 23 9 0 
24 9 0 25 9 0 26 9 0 
27 9 0 28 9 0 29 9 0 
30 9 0 31 9 0 32 9 0 
33 9 0 34 9 0 35 9 0 
36 9 0 37 9 0 38 9 0 
39 9 0 40 9 0 41 9 0 
42 9 0 43 9 0 44 9 0 
45 9 0 46 9 0 47 9 0 
48 9 0 49 9 0 50 9 0 
0 10 0 1 10 0 2 10 0 
3 10 0 4 10 0 5 10 0 
6 10 0 7 10 0 8 10 0 
9 10 0 10 10 0 11 10 0 
12 10 0 13 10 0 14 10 0 
15 10 0 16 10 0 17 10 0 
18 10 0 19 10 0 20 10 0 
21 10 0 22 10 0 23 10 0 
24 10 0 25 10 0 26 10 0 
27 10 0 28 10 0 29 10 0 
30 10 0 31 10 0 32 10 0 
33 10 0 34 10 0 35 10 0 
36 10 0 37 10 0 38 10 0 
39 10 0 40 10 0 41 10 0 
42 10 0 43 10 0 44 10 0 
45 10 0 46 10 0 47 10 0 
48 10 0 49 10 0 50 10 0 
0 11 0 1 11 0 2 11 0 
3 11 0 4 11 0 5 11 0 
6 11 0 7 11 0 8 11 0 
9 11 0 10 11 0 11 11 0 
12 11 0 13 11 0 14 11 0 
15 11 0 16 11 0 17 11 0 
18 11 0 19 11 0 20 11 0 
21 11 0 22 11 0 23 11 0 
24 11 0 25 11 0 26 11 0 
27 11 0 28 11 0 29 11 0 
30 11 0 31 11 0 32 11 0 
33 11 0 34 11 0 35 11 0 
36 11 0 37 11 0 38 11 0 
39 11 0 40 11 0 41 11 0 
42 11 0 43 11 0 44 11 0 
45 11 0 46 11 0 47 11 0 
48 11 0 49 11 0 50 11 0 
0 12 0 1 12 0 2 12 0 
3 12 0 4 12 0 5 12 0 
6 12 0 7 12 0 8 12 0 
9 12 0 10 12 0 11 12 0 
12 12 0 13 12 0 14 12 0 
15 12 0 16 12 0 17 12 0 
18 12 0 19 12 0 20 12 0 
21 12 0 22 12 0 23 12 0 
24 12 0 25 12 0 26 12 0 
27 12 0 28 12 0 29 12 0 
30 12 0 31 12 0 32 12 0 
33 12 0 34 12 0 35 12 0 
36 12 0 37 12 0 38 12 0 
39 12 0 40 12 0 41 12 0 
42 12 0 43 12 0 44 12 0 
45 12 0 46 12 0 47 12 0 
48 12 0 49 12 0 50 12 0 
0 13 0 1 13 0 2 13 0 
3 13 0 4 13 0 5 13 0 
6 13 0 7 13 0 8 13 0 
9 13 0 10 13 0 11 13 0 
12 13 0 13 13 0 14 13 0 
15 13 0 16 13 0 17 13 0 
18 13 0 19 13 0 20 13 0 
21 13 0 22 13 0 23 13 0 
24 13 0 25 13 0 26 13 0 
27 13 0 28 13 0 29 13 0 
30 13 0 31 13 0 32 13 0 
33 13 0 34 13 0 35 13 0 
36 13 0 37 13 0 38 13 0 
39 13 0 40 13 0 41 13 0 
42 13 0 43 13 0 44 13 0 
45 13 0 46 13 0 47 13 0 
48 13 0 49 13 0 50 13 0 
0 14 0 1 14 0 2 14 0 
3 14 0 4 14 0 5 14 0 
6 14 0 7 14 0 8 14 0 
9 14 0 10 14 0 11 14 0 
12 14 0 13 14 0 14 14 0 
15 14 0 16 14 0 17 14 0 
18 14 0 19 14 0 20 14 0 
21 14 0 22 14 0 23 14 0 
24 14 0 25 14 0 26 14 0 
27 14 0 28 14 0 29 14 0 
30 14 0 31 14 0 32 14 0 
33 14 0 34 14 0 35 14 0 
36 14 0 37 14 0 38 14 0 
39 14 0 40 14 0 41 14 0 
42 14 0 43 14 0 44 14 0 
45 14 0 46 14 0 47 14 0 
48 14 0 49 14 0 50 14 0 
0 15 0 1 15 0 2 15 0 
3 15 0 4 15 0 5 15 0 
6 15 0 7 15 0 8 15 0 
9 15 0 10 15 0 11 15 0 
12 15 0 13 15 0 14 15 0 
15 15 0 16 15 0 17 15 0 
18 15 0 19 15 0 20 15 0 
21 15 0 22 15 0 23 15 0 
24 15 0 25 15 0 26 15 0 
27 15 0 28 15 0 29 15 0 
30 15 0 31 15 0 32 15 0 
33 15 0 34 15 0 35 15 0 
36 15 0 37 15 0 38 15 0 
39 15 0 40 15 0 41 15 0 
42 15 0 43 15 0 44 15 0 
45 15 0 46 15 0 47 15 0 
48 15 0 49 15 0 50 15 0 
0 16 0 1 16 0 2 16 0 
3 16 0 4 16 0 5 16 0 
6 16 0 7 16 0 8 16 0 
9 16 0 10 16 0 11 16 0 
12 16 0 13 16 0 14 16 0 
15 16 0 16 16 0 17 16 0 
18 16 0 19 16 0 20 16 0 
21 16 0 22 16 0 23 16 0 
24 16 0 25 16 0 26 16 0 
27 16 0 28 16 0 29 16 0 
30 16 0 31 16 0 32 16 0 
33 16 0 34 16 0 35 16 0 
36 16 0 37 16 0 38 16 0 
39 16 0 40 16 0 41 16 0 
42 16 0 43 16 0 44 16 0 
45 16 0 46 16 0 47 16 0 
48 16 0 49 16 0 50 16 0 
0 17 0 1 17 0 2 17 0 
3 17 0 4 17 0 5 17 0 
6 17 0 7 17 0 8 17 0 
9 17 0 10 17 0 11 17 0 
12 17 0 13 17 0 14 17 0 
15 17 0 16 17 0 17 17 0 
18 17 0 19 17 0 20 17 0 
21 17 0 22 17 0 23 17 0 
24 17 0 25 17 0 26 17 0 
27 17 0 28 17 0 29 17 0 
30 17 0 31 17 0 32 17 0 
33 17 0 34 17 0 35 17 0 
36 17 0 37 17 0 38 17 0 
39 17 0 40 17 0 41 17 0 
42 17 0 43 17 0 44 17 0 
45 17 0 46 17 0 47 17 0 
48 17 0 49 17 0 50 17 0 
0 18 0 1 18 0 2 18 0 
3 18 0 4 18 0 5 18 0 
6 18 0 7 18 0 8 18 0 
9 18 0 10 18 0 11 18 0 
12 18 0 13 18 0 14 18 0 
15 18 0 16 18 0 17 18 0 
18 18 0 19 18 0 20 18 0 
21 18 0 22 18 0 23 18 0 
24 18 0 25 18 0 26 18 0 
27 18 0 28 18 0 29 18 0 
30 18 0 31 18 0 32 18 0 
33 18 0 34 18 0 35 18 0 
36 18 0 37 18 0 38 18 0 
39 18 0 40 18 0 41 18 0 
42 18 0 43 18 0 44 18 0 
45 18 0 46 18 0 47 18 0 
48 18 0 49 18 0 50 18 0 
0 19 0 1 19 0 2 19 0 
3 19 0 4 19 0 5 19 0 
6 19 0 7 19 0 8 19 0 
9 19 0 10 19 0 11 19 0 
12 19 0 13 19 0 14 19 0 
15 19 0 16 19 0 17 19 0 
18 19 0 19 19 0 20 19 0 
21 19 0 22 19 0 23 19 0 
24 19 0 25 19 0 26 19 0 
27 19 0 28 19 0 29 19 0 
30 19 0 31 19 0 32 19 0 
33 19 0 34 19 0 35 19 0 
36 19 0 37 19 0 38 19 0 
39 19 0 40 19 0 41 19 0 
42 19 0 43 19 0 44 19 0 
45 19 0 46 19 0 47 19 0 
48 19 0 49 19 0 50 19 0 
0 20 0 1 20 0 2 20 0 
3 20 0 4 20 0 5 20 0 
6 20 0 7 20 0 8 20 0 
9 20 0 10 20 0 11 20 0 
12 20 0 13 20 0 14 20 0 
15 20 0 16 20 0 17 20 0 
18 20 0 19 20 0 20 20 0 
21 20 0 22 20 0 23 20 0 
24 20 0 25 20 0 26 20 0 
27 20 0 28 20 0 29 20 0 
30 20 0 31 20 0 32 20 0 
33 20 0 34 20 0 35 20 0 
36 20 0 37 20 0 38 20 0 
39 20 0 40 20 0 41 20 0 
42 20 0 43 20 0 44 20 0 
45 20 0 46 20 0 47 20 0 
48 20 0 49 20 0 50 20 0 
0 21 0 1 21 0 2 21 0 
3 21 0 4 21 0 5 21 0 
6 21 0 7 21 0 8 21 0 
9 21 0 10 21 0 11 21 0 
12 21 0 13 21 0 14 21 0 
15 21 0 16 21 0 17 21 0 
18 21 0 19 21 0 20 21 0 
21 21 0 22 21 0 23 21 0 
24 21 0 25 21 0 26 21 0 
27 21 0 28 21 0 29 21 0 
30 21 0 31 21 0 32 21 0 
33 21 0 34 21 0 35 21 0 
36 21 0 37 21 0 38 21 0 
39 21 0 40 21 0 41 21 0 
42 21 0 43 21 0 44 21 0 
45 21 0 46 21 0 47 21 0 
48 21 0 49 21 0 50 21 0 
0 22 0 1 22 0 2 22 0 
3 22 0 4 22 0 5 22 0 
6 22 0 7 22 0 8 22 0 
9 22 0 10 22 0 11 22 0 
12 22 0 13 22 0 14 22 0 
15 22 0 16 22 0 17 22 0 
18 22 0 19 22 0 20 22 0 
21 22 0 22 22 0 23 22 0 
24 22 0 25 22 0 26 22 0 
27 22 0 28 22 0 29 22 0 
30 22 0 31 22 0 32 22 0 
33 22 0 34 22 0 35 22 0 
36 22 0 37 22 0 38 22 0 
39 22 0 40 22 0 41 22 0 
42 22 0 43 22 0 44 22 0 
45 22 0 46 22 0 47 22 0 
48 22 0 49 22 0 50 22 0 
0 23 0 1 23 0 2 23 0 
3 23 0 4 23 0 5 23 0 
6 23 0 7 23 0 8 23 0 
9 23 0 10 23 0 11 23 0 
12 23 0 13 23 0 14 23 0 
15 23 0 16 23 0 17 23 0 
18 23 0 19 23 0 20 23 0 
21 23 0 22 23 0 23 23 0 
24 23 0 25 23 0 26 23 0 
27 23 0 28 23 0 29 23 0 
30 23 0 31 23 0 32 23 0 
33 23 0 34 23 0 35 23 0 
36 23 0 37 23 0 38 23 0 
39 23 0 40 23 0 41 23 0 
42 23 0 43 23 0 44 23 0 
45 23 0 46 23 0 47 23 0 
48 23 0 49 23 0 50 23 0 
0 24 0 1 24 0 2 24 0 
3 24 0 4 24 0 5 24 0 
6 24 0 7 24 0 8 24 0 
9 24 0 10 24 0 11 24 0 
12 24 0 13 24 0 14 24 0 
15 24 0 16 24 0 17 24 0 
18 24 0 19 24 0 20 24 0 
21 24 0 22 24 0 23 24 0 
24 24 0 25 24 0 26 24 0 
27 24 0 28 24 0 29 24 0 
30 24 0 31 24 0 32 24 0 
33 24 0 34 24 0 35 24 0 
36 24 0 37 24 0 38 24 0 
39 24 0 40 24 0 41 24 0 
42 24 0 43 24 0 44 24 0 
45 24 0 46 24 0 47 24 0 
48 24 0 49 24 0 50 24 0 
0 25 0 1 25 0 2 25 0 
3 25 0 4 25 0 5 25 0 
[...]
CELL_DATA 2500
SCALARS $\mu_{AB} double
LOOKUP_TABLE default
-0.0020730489762 -0.00206968762 -0.0020396687603 -0.0020044198074 -0.0019895356028 -0.0020024665862 -0.0020288914295 -0.0020441683651 -0.0020442627247 
-0.0020504992734 -0.0020641945251 -0.0020665981286 -0.0020605547612 -0.0020476815105 -0.0020143236305 -0.0019731965392 -0.0019531468228 -0.001962335831 
-0.0019861202589 -0.0020066161591 -0.0020152615318 -0.0020123824523 -0.0020049456654 -0.0020045662579 -0.0020182237619 -0.0020408186828 -0.0020568822506 
-0.0020567877923 -0.0020460486872 -0.0020360633252 -0.0020290983273 -0.0020261963813 -0.0020280883627 -0.002029578201 -0.0020206973157 -0.0020060494502 
-0.0019969765084 -0.001998539377 -0.0020128024874 -0.0020353393768 -0.002061883241 -0.0020818895943 -0.002082015639 -0.002069942349 -0.0020569261894 
-0.0020430429296 -0.0020419258717 -0.0020564127884 -0.0020637796347 -0.0020645507436 -0.0020736960207 -0.0020710355064 -0.0020417073866 -0.0020122833415 
-0.0020015751945 -0.0020100483544 -0.002029238602 -0.0020411550042 -0.0020382259884 -0.00204254526 -0.0020617539451 -0.0020736256292 -0.0020726157653 
-0.0020607429656 -0.0020298187346 -0.0019923369413 -0.0019714129338 -0.001972739994 -0.0019864273071 -0.0020037390429 -0.0020212610221 -0.0020324596325 
-0.002032792306 -0.0020315368491 -0.0020412029766 -0.0020572949849 -0.0020588642617 -0.0020408991149 -0.0020247179333 -0.0020262790259 -0.0020345714639 
-0.0020384201931 -0.0020405504846 -0.0020414937541 -0.002029351146 -0.0020046121169 -0.0019807627864 -0.0019684976215 -0.0019755286744 -0.0020018594107 
-0.0020399296357 -0.0020732347518 -0.0020829414217 -0.002075242187 -0.0020664910932 -0.0020583454937 -0.0020564968679 -0.0020598449389 -0.0020577282357 
-0.0020601330913 -0.0020607365402 -0.0020626740315 -0.0020438289032 -0.0020276375122 -0.0020220948868 -0.0020236871204 -0.0020345842621 -0.0020463851794 
-0.0020453066191 -0.0020471935494 -0.0020657853048 -0.0020835896452 -0.0020903997992 -0.0020819711263 -0.0020498487694 -0.0020097052528 -0.0019860460434 
-0.0019833874328 -0.0019911549063 -0.0020044883828 -0.0020249588842 -0.0020443506458 -0.0020508111305 -0.0020497330999 -0.0020564827984 -0.0020668578303 
-0.0020560775664 -0.0020244770683 -0.002006283283 -0.0020173772183 -0.002035079331 -0.0020414643428 -0.0020413421665 -0.0020399773804 -0.0020270611802 
-0.0020007852088 -0.0019736586565 -0.0019559629941 -0.001956414394 -0.0019799756601 -0.0020197050518 -0.0020583298091 -0.0020758258234 -0.0020749175218 
-0.0020724899788 -0.0020704701367 -0.0020673569897 -0.0020593623491 -0.0020464808949 -0.0020458715076 -0.0020350689595 -0.0020339724832 -0.0020215822312 
-0.0020163236364 -0.0020193598846 -0.0020246813427 -0.0020375598977 -0.0020531320745 -0.0020542336295 -0.0020518276983 -0.0020638679983 -0.002081185813 
-0.0020953232183 -0.0020953347417 -0.0020661282296 -0.0020246902082 -0.0020011465278 -0.0019995378343 -0.0020034633223 -0.0020076614087 -0.0020208468984 
-0.0020409326342 -0.0020530524237 -0.0020544960393 -0.0020585820888 -0.0020652912323 -0.0020524330721 -0.0020206459655 -0.002004102739 -0.0020151077545 
-0.00203025871 -0.002035758603 -0.0020382661547 -0.0020417548011 -0.0020350653396 -0.0020146064404 -0.0019913485124 -0.0019719055219 -0.0019620714195 
-0.0019711413669 -0.0019976084352 -0.0020318982953 -0.0020581471089 -0.0020699027455 -0.0020746813152 -0.0020750355131 -0.0020703295905 -0.0020574990244 
-0.0020388126116 -0.0020298165122 -0.0020247834941 -0.0020128271433 -0.0019976058029 -0.0019945509387 -0.0020047108821 -0.0020206951982 -0.0020416635645 
-0.0020592558433 -0.0020592749758 -0.002053477839 -0.0020589234102 -0.0020709987511 -0.0020879089767 -0.0020977454473 -0.0020766193454 -0.0020379127 
-0.002016685161 -0.0020166076771 -0.0020148234824 -0.0020054855965 -0.0020053619286 -0.002022790757 -0.0020435764034 -0.0020535051753 -0.002057320092 
-0.0020610275704 -0.0020522707432 -0.0020292803689 -0.0020170421187 -0.0020241339109 -0.0020338450856 -0.0020398552028 -0.0020476541223 -0.0020567937556 
-0.002055069562 -0.0020387459868 -0.0020192501448 -0.0020003103955 -0.0019823049636 -0.0019746808307 -0.0019812339982 -0.002004467198 -0.0020361100283 
-0.0020599768718 -0.0020717057583 -0.0020745857224 -0.0020729654216 -0.0020662567627 -0.0020515687567 -0.0020350449547 -0.002029029077 -0.0020140591289 
-0.0019981675978 -0.001992095555 -0.0020009073931 -0.0020208761284 -0.0020446558292 -0.0020581115995 -0.002053419603 -0.0020468604951 -0.0020508808586 
-0.0020598930622 -0.0020787369519 -0.0020993102672 -0.0020907525182 -0.0020591592673 -0.0020411629373 -0.0020410544306 -0.0020333247734 -0.0020121448095 
-0.0019972747262 -0.0020052962725 -0.0020291234329 -0.0020483524517 -0.002054817663 -0.0020543115546 -0.0020462177957 -0.0020307832702 -0.0020256520472 
-0.0020363717404 -0.0020496996178 -0.0020603211668 -0.0020698635362 -0.0020772708961 -0.0020734379794 -0.0020563514354 -0.0020386443805 -0.0020228478498 
-0.0020042195874 -0.0019879109996 -0.0019786128451 -0.0019877611157 -0.002013363637 -0.0020367390139 -0.0020513408991 -0.0020599653211 -0.0020652223596 
-0.0020678873596 -0.0020621251546 -0.0020455533156 -0.0020195321395 -0.0020134091257 -0.0020072876593 -0.0020030253513 -0.0020079311529 -0.0020265509673 
-0.0020496360485 -0.0020559988698 -0.002041855604 -0.0020305155036 -0.0020333439334 -0.0020427172514 -0.0020658280381 -0.0020978563332 -0.002104265968 
-0.0020833906154 -0.0020701498489 -0.0020712558326 -0.0020639095924 -0.0020414365753 -0.0020166743923 -0.0020067261984 -0.0020179895269 -0.00203724753 
-0.0020470672867 -0.002044591719 -0.0020342529907 -0.0020216907545 -0.0020229333854 -0.0020414140389 -0.0020628187793 -0.0020779262844 -0.0020849956301 
-0.0020865479077 -0.0020792010697 -0.0020622286019 -0.0020463865557 -0.0020333768462 -0.0020180879574 -0.0020017596176 -0.0019863560732 -0.0019849134722 
-0.0019960612331 -0.0020062805363 -0.0020194363374 -0.002036144813 -0.002045989161 -0.002049339064 -0.0020465079099 -0.0020326702209 -0.0019992571317 
-0.0020019400277 -0.0020087079306 -0.0020126870353 -0.0020196726535 -0.0020415659201 -0.0020696206956 -0.0020745887991 -0.0020515439636 -0.0020303744737 
-0.0020273594449 -0.0020353382175 -0.0020588287271 -0.0020940274938 -0.0021086872748 -0.0020963418944 -0.0020868567201 -0.0020891836855 -0.002086888632 
-0.0020720851415 -0.0020455471014 -0.0020192277741 -0.0020110687186 -0.0020218747733 -0.0020345400256 -0.0020372153599 -0.0020298625322 -0.0020185771424 
-0.0020194241475 -0.0020377107313 -0.0020618883665 -0.0020802831901 -0.0020866570211 -0.0020847405874 -0.0020760889802 -0.0020605204193 -0.0020446722555 
-0.0020313073187 -0.0020200205037 -0.0020099558312 -0.0019997807988 -0.0019989261126 -0.0019991604168 -0.001992547245 -0.0020004417796 -0.0020225914289 
-0.0020317163965 -0.0020280440011 -0.0020224658072 -0.0020095493448 -0.0019893015986 -0.0019968435694 -0.0020100577128 -0.0020182984263 -0.0020264639394 
-0.0020509009429 -0.0020854439451 -0.0020975153266 -0.002077378209 -0.0020536169634 -0.0020464565759 -0.0020515669648 -0.0020676692655 -0.0020904021153 
-0.0020983842365 -0.0020872395943 -0.0020794123491 -0.0020818446122 -0.0020830769694 -0.0020757619364 -0.0020532930817 -0.0020226922906 -0.0020045691762 
-0.0020076068045 -0.0020214351149 -0.0020330467693 -0.0020341165438 -0.0020239661041 -0.0020175313407 -0.0020273016429 -0.0020514578711 -0.0020773567775 
-0.0020890068289 -0.0020852594563 -0.0020721635539 -0.0020529070468 -0.0020330837635 -0.0020197438647 -0.0020161812518 -0.0020162749073 -0.0020168535072 
-0.002026426466 -0.00202725262 -0.0020100606585 -0.0020091685059 -0.0020266770214 -0.0020266967849 -0.0020130787525 -0.002005594231 -0.0019960848829 
-0.0019956852184 -0.0020092029511 -0.0020212532506 -0.0020231916347 -0.0020236857528 -0.0020405254326 -0.0020718846166 -0.0020906969345 -0.0020825256701 
-0.0020651449583 -0.0020579488609 -0.0020617192006 -0.0020685865119 -0.002070214679 -0.0020597697531 -0.0020430651707 -0.0020378899065 -0.0020456480062 
-0.002053718489 -0.0020536605459 -0.0020380209338 -0.0020140590489 -0.002000166509 -0.002002901362 -0.0020162727281 -0.0020327044491 -0.0020391007409 
-0.0020269727285 -0.0020105066493 -0.0020114917758 -0.0020381421873 -0.0020742042674 -0.0020915639169 -0.00208384199 -0.0020628878019 -0.0020373887602 
-0.0020148324574 -0.002007721852 -0.0020176393528 -0.0020264775862 -0.0020311647408 -0.0020491078603 -0.0020599049923 -0.0020460237213 -0.0020400604145 
-0.0020457069217 -0.002030319157 -0.0020050331552 -0.0019958306076 -0.0019931100032 -0.0020072714935 -0.0020241752072 -0.0020296233245 -0.0020216309751 
-0.0020154997026 -0.0020244398523 -0.0020470843735 -0.0020660868307 -0.0020645938984 -0.0020469289569 -0.0020330847182 -0.0020345302892 -0.0020387303399 
-0.0020277069372 -0.0020017612587 -0.0019782574851 -0.0019762182929 -0.0019936387767 -0.0020134967294 -0.002021328255 -0.0020094497324 -0.0019923971867 
-0.001991079173 -0.0020059741793 -0.0020271388284 -0.0020492821987 -0.0020582305443 -0.0020421418348 -0.0020164015127 -0.0020090172409 -0.0020318695504 
-0.0020653134033 -0.0020775473217 -0.0020641643216 -0.0020423082209 -0.0020203370623 -0.0020034144078 -0.0020078739239 -0.0020311685358 -0.0020413639192 
-0.0020371875777 -0.0020517190761 -0.0020723308791 -0.0020731531356 -0.0020721329075 -0.0020699938663 -0.0020435564375 -0.0020102248877 -0.0019974557813 
-0.0019974413572 -0.0020155374564 -0.0020294851355 -0.002026562709 -0.0020132919495 -0.0020095784266 -0.0020188167111 -0.0020361661278 -0.002052656413 
-0.0020497397963 -0.0020208245737 -0.0019910273201 -0.0019874357196 -0.0019980131066 -0.0019937115707 -0.0019694360541 -0.0019448026415 -0.0019415614526 
-0.0019597531189 -0.0019826651341 -0.001990794042 -0.0019744712194 -0.0019572650785 -0.0019681485843 -0.0020034235858 -0.0020437877518 -0.0020793134045 
-0.0020948686512 -0.0020795484822 -0.0020501007291 -0.0020332076053 -0.0020387887684 -0.0020520888447 -0.0020506201996 -0.0020368887203 -0.002028294738 
-0.0020233744185 -0.0020176839319 -0.0020283463046 -0.0020527803168 -0.0020533707664 -0.0020317970804 -0.002032013095 -0.0020529148678 -0.0020674351992 
-0.0020771180091 -0.0020762444331 -0.0020509312335 -0.0020206315293 -0.0020076974923 -0.002006029209 -0.0020278930455 -0.0020406805492 -0.0020341525352 
-0.0020201042518 -0.0020196146271 -0.0020284763961 -0.0020404855413 -0.0020536652637 -0.0020480102121 -0.002009070314 -0.0019657431766 -0.0019564574214 
-0.0019741364883 -0.0019867303523 -0.0019809339179 -0.0019669406204 -0.0019612130685 -0.0019671756905 -0.0019780490333 -0.0019784099121 -0.0019558590275 
-0.0019356722912 -0.0019515207017 -0.0019980008541 -0.0020495921762 -0.002092937023 -0.0021140109201 -0.0021050054163 -0.0020809654763 -0.0020597632963 
-0.0020482362262 -0.0020440374676 -0.0020375704363 -0.0020323096165 -0.0020396472896 -0.0020495356004 -0.0020497820552 -0.0020559043577 -0.0020683175583 
-0.0020531513633 -0.002015516418 -0.0019999591043 -0.0020126035012 -0.0020331663707 -0.002053376186 -0.0020590976924 -0.0020421984453 -0.0020227745059 
-0.0020165238059 -0.0020173305407 -0.0020429748332 -0.0020582189437 -0.0020537752742 -0.0020418287446 -0.0020420142491 -0.0020473954732 -0.0020527400893 
-0.0020611747782 -0.0020528444487 -0.0020100714406 -0.0019621088236 -0.0019482560496 -0.0019644862525 -0.0019859063773 -0.0020016392383 -0.0020109462168 
-0.0020133681415 -0.0020088076674 -0.0020053585388 -0.0020001982367 -0.0019781436476 -0.0019582468758 -0.001972142197 -0.0020129840338 -0.0020548360313 
-0.0020869850384 -0.0021010903684 -0.0020943142611 -0.0020774574454 -0.002057765923 -0.0020412060025 -0.0020373551526 -0.0020403466278 -0.0020428019106 
-0.0020511276527 -0.002060446013 -0.0020606404072 -0.0020639817625 -0.0020677290348 -0.0020410828711 -0.0019936145015 -0.0019671602253 -0.0019710210239 
-0.0019946179878 -0.002026026139 -0.0020411693875 -0.0020325808436 -0.0020221908436 -0.0020229949598 -0.0020287637699 -0.0020492700576 -0.0020615946278 
-0.002059778662 -0.0020543031954 -0.0020605596978 -0.0020694006229 -0.0020740252234 -0.0020782297369 -0.0020648345148 -0.0020194476342 -0.0019717455133 
-0.0019553736118 -0.0019640746647 -0.0019817497342 -0.0020084971011 -0.0020406322008 -0.0020596820047 -0.0020553756311 -0.0020458097077 -0.0020404128393 
-0.0020221106637 -0.0020034081935 -0.0020129995054 -0.0020419354169 -0.0020650657211 -0.0020762564768 -0.0020739109175 -0.0020603003215 -0.0020433334619 
-0.0020249715438 -0.0020129731946 -0.0020216393616 -0.0020375045755 -0.0020394056137 -0.0020366417069 -0.0020396648218 -0.0020462276417 -0.0020626911764 
-0.0020725389611 -0.0020413922909 -0.0019859840246 -0.0019502151883 -0.0019459725124 -0.0019703004502 -0.0020106371158 -0.0020354202879 -0.0020350194489 
-0.0020311680355 -0.0020346713211 -0.0020391026826 -0.002052146667 -0.0020572025531 -0.0020569340675 -0.0020597597373 -0.0020764143083 -0.0020950474944 
-0.0021035946837 -0.0021034633329 -0.0020837283851 -0.0020365603216 -0.0019910281574 -0.0019751158052 -0.0019796736168 -0.0019921207509 -0.0020177526158 
-0.0020546988935 -0.0020795451623 -0.0020769768513 -0.0020677028163 -0.0020659781411 -0.0020521055163 -0.0020337626026 -0.0020393377816 -0.002058968006 
-0.0020676535061 -0.0020626054444 -0.0020467249735 -0.0020251134192 -0.0020051297223 -0.0019899294155 -0.0019892706274 -0.0020126553426 -0.002034499636 
-0.002028720931 -0.0020153274053 -0.0020188067778 -0.0020410985975 -0.0020799104295 -0.0021035764762 -0.0020730092435 -0.0020116121633 -0.0019676377595 
-0.0019547464465 -0.0019731404375 -0.0020111984664 -0.002037823943 -0.0020441095049 -0.0020476345448 -0.0020527132435 -0.0020516521739 -0.0020527754491 
-0.0020535927783 -0.0020537445268 -0.0020599235111 -0.0020818504478 -0.0021065518432 -0.0021158044809 -0.0021107217663 -0.0020912330254 -0.0020535486518 
-0.0020175079456 -0.0020045809313 -0.0020085294581 -0.0020191783514 -0.0020375423788 -0.0020614334386 -0.0020754213295 -0.0020697674436 -0.0020637381469 
-0.0020703059269 -0.002066882557 -0.0020538076186 -0.0020558724986 -0.002064534422 -0.0020596140367 -0.0020434576045 -0.0020217115203 -0.0019988490098 
-0.0019807149489 -0.0019730468772 -0.0019855973893 -0.0020179861296 -0.0020360517707 -0.0020188817858 -0.0019982776283 -0.002004244489 -0.0020368519741 
-0.0020886866566 -0.0021246231474 -0.0021048426899 -0.0020509076205 -0.0020090037497 -0.0019940635791 -0.0020068866248 -0.0020352559837 -0.002053946104 
-0.0020596500901 -0.0020649497538 -0.002066849838 -0.0020589998235 -0.0020405902928 -0.0020446071481 -0.0020456875306 -0.0020489777199 -0.0020676890315 
-0.002090742416 -0.002095391066 -0.002085520498 -0.0020749014226 -0.0020617171014 -0.002047137134 -0.0020387273649 -0.0020365043332 -0.0020393437563 
-0.0020450185889 -0.0020501263792 -0.0020511074367 -0.0020456512463 -0.0020454117996 -0.0020607967165 -0.0020726447574 -0.002072342048 -0.0020728555012 
-0.0020676079211 -0.0020482282621 -0.0020249390221 -0.0020048658789 -0.0019888114838 -0.0019774984623 -0.0019757891155 -0.0019922906888 -0.0020212278723 
-0.0020288172241 -0.0020014984242 -0.0019745622207 -0.0019759198318 -0.0020041852633 -0.0020539740306 -0.0020983051773 -0.0021006622344 -0.0020697777142 
-0.0020405940025 -0.0020329107313 -0.002049958422 -0.0020734287011 -0.0020808130975 -0.0020766769637 -0.0020721908384 -0.0020618684871 -0.0020463171339 
-0.0020246805058 -0.0020382810004 -0.0020436413273 -0.0020433722792 -0.0020537971759 -0.0020685127543 -0.0020655640558 -0.0020517559863 -0.0020503681965 
-0.0020621446461 -0.0020726112657 -0.0020709993283 -0.0020576659189 -0.0020436499154 -0.0020311029984 -0.0020194773305 -0.0020166873307 -0.002021434637 
-0.0020282556979 -0.002044419305 -0.0020637079852 -0.0020740500511 -0.0020753021068 -0.0020630680603 -0.0020400153845 -0.0020198787267 -0.0020087254879 
-0.0020045069131 -0.0020022933568 -0.0020020416291 -0.0020105438561 -0.0020256489721 -0.0020236847699 -0.0019942229325 -0.0019637237751 -0.0019555278343 
-0.0019719519412 -0.0020122451355 -0.0020597370722 -0.0020837260112 -0.0020752592752 -0.0020546970337 -0.0020518282063 -0.0020754766272 -0.0020976464552 
-0.0020940717998 -0.0020775060943 -0.0020613312852 -0.0020404218529 -0.0020226163704 -0.0020188085152 -0.0020405432271 -0.0020517878238 -0.0020515671736 
-0.0020533524538 -0.0020560496894 -0.0020469900316 -0.0020340544978 -0.0020367876385 -0.0020568904548 -0.0020803516198 -0.0020878779113 -0.0020727623107 
-0.0020491117372 -0.00202333947 -0.0020000088526 -0.0019972442001 -0.0020129101553 -0.0020234622322 -0.0020310590495 -0.0020447045616 -0.0020553941729 
-0.0020551126455 -0.0020437673737 -0.0020304981081 -0.0020235671872 -0.0020237783729 -0.002030343387 -0.0020374347921 -0.0020383714486 -0.002035664546 
-0.0020358054264 -0.002030892774 -0.0020088305247 -0.0019795823568 -0.0019637415141 -0.0019710020754 -0.0020012514437 -0.0020424220715 -0.0020732189105 
-0.0020752185573 -0.0020566844106 -0.0020533648869 -0.0020777470789 -0.0020955810578 -0.0020833014094 -0.0020605773097 -0.0020419378022 -0.0020211821037 
-0.0020083077321 -0.0020170335548 -0.0020401330198 -0.0020545909481 -0.0020577515818 -0.0020547496633 -0.00204661959 -0.0020352110562 -0.0020303192047 
-0.0020359325161 -0.002047988659 -0.0020664095779 -0.0020806062092 -0.0020768358189 -0.0020606415092 -0.0020350496346 -0.0020054753941 -0.001996596967 
-0.0020124111151 -0.0020231474395 -0.0020249784686 -0.0020336977887 -0.0020411965533 -0.0020349247814 -0.0020221931754 -0.0020182044024 -0.0020225851413 
-0.0020287487874 -0.0020395163674 -0.0020527669506 -0.0020562253919 -0.0020464907716 -0.0020383183509 -0.0020379210959 -0.0020281953969 -0.0020029896949 
-0.0019837167779 -0.0019876062998 -0.0020084574902 -0.0020323487048 -0.0020526204898 -0.0020563362007 -0.0020436116887 -0.0020441116992 -0.0020667301674 
-0.0020783991574 -0.0020617692535 -0.0020385056743 -0.0020221190083 -0.0020069800819 -0.0020018283439 -0.0020191081115 -0.0020361800474 -0.0020462202277 
-0.0020505431846 -0.0020467547643 -0.002032414541 -0.0020202528777 -0.0020263055628 -0.0020400028827 -0.0020451628657 -0.0020528940951 -0.0020671369027 
-0.0020722984809 -0.0020652230464 -0.0020446186318 -0.0020125883361 -0.0019936675221 -0.0020016367635 -0.0020129884459 -0.0020203362078 -0.002036084485 
-0.0020461715712 -0.0020341107723 -0.0020149591858 -0.0020114083908 -0.0020183202436 -0.0020226660508 -0.0020290909695 -0.002040469488 -0.002043320297 
-0.0020307360259 -0.0020225800754 -0.0020315196052 -0.0020339723999 -0.0020136194671 -0.0019955878532 -0.0020033259201 -0.0020209361489 -0.002028472873 
-0.0020328564746 -0.002034668189 -0.002030798153 -0.0020375753221 -0.0020570574214 -0.0020647582142 -0.0020495749204 -0.0020267074325 -0.0020094779921 
-0.0019990475868 -0.00200208951 -0.0020351105859 -0.0020398545737 -0.0020361644593 -0.0020342440542 -0.0020316532526 -0.002019291694 -0.002008811375 
-0.0020222978473 -0.0020457966207 -0.0020526943219 -0.002054029992 -0.0020607263229 -0.0020609943841 -0.0020528316843 -0.0020360346139 -0.002007338271 
-0.0019842460832 -0.0019864979632 -0.0019997014113 -0.002014208283 -0.0020365884675 -0.0020497861529 -0.0020370402988 -0.0020161078075 -0.0020123717759 
-0.0020190553731 -0.0020190427832 -0.0020162094522 -0.0020177610856 -0.00201408707 -0.0019988881574 -0.0019932728088 -0.0020098129378 -0.0020217538118 
-0.0020095230635 -0.0019990544977 -0.002015253112 -0.0020360941256 -0.0020379717474 -0.0020342853515 -0.0020343216807 -0.0020339460473 -0.0020387287591 
-0.0020499763236 -0.0020572567278 -0.0020504935213 -0.0020315279891 -0.0020142296568 -0.0020092458215 -0.0020197787393 -0.0020526801275 -0.0020447126649 
-0.0020275745844 -0.0020167289529 -0.0020167757676 -0.0020154215435 -0.0020119737051 -0.0020257353318 -0.0020496698262 -0.0020573150475 -0.0020548106678 
-0.0020526302221 -0.0020445152388 -0.0020346284442 -0.0020250623597 -0.0020059238444 -0.0019857939219 -0.0019867266752 -0.0020001277858 -0.0020131907986 