# vtk DataFile Version 4.2
vtk output
ASCII
DATASET UNSTRUCTURED_GRID
POINTS 2601 double
0 0 0 1 0 0 2 0 0 
3 0 0 4 0 0 5 0 0 
6 0 0 7 0 0 8 0 0 
9 0 0 10 0 0 11 0 0 
12 0 0 13 0 0 14 0 0 
15 0 0 16 0 0 17 0 0 
18 0 0 19 0 0 20 0 0 
21 0 0 22 0 0 23 0 0 
24 0 0 25 0 0 26 0 0 
27 0 0 28 0 0 29 0 0 
30 0 0 31 0 0 32 0 0 
33 0 0 34 0 0 35 0 0 
36 0 0 37 0 0 38 0 0 
39 0 0 40 0 0 41 0 0 
42 0 0 43 0 0 44 0 0 
45 0 0 46 0 0 47 0 0 
48 0 0 49 0 0 50 0 0 
0 1 0 1 1 0 2 1 0 
3 1 0 4 1 0 5 1 0 
6 1 0 7 1 0 8 1 0 
9 1 0 10 1 0 11 1 0 
12 1 0 13 1 0 14 1 0 
15 1 0 16 1 0 17 1 0 
18 1 0 19 1 0 20 1 0 
21 1 0 22 1 0 23 1 0 
24 1 0 25 1 0 26 1 0 
27 1 0 28 1 0 29 1 0 
30 1 0 31 1 0 32 1 0 
33 1 0 34 1 0 35 1 0 
36 1 0 37 1 0 38 1 0 
39 1 0 40 1 0 41 1 0 
42 1 0 43 1 0 44 1 0 
45 1 0 46 1 0 47 1 0 
48 1 0 49 1 0 50 1 0 
0 2 0 1 2 0 2 2 0 
3 2 0 4 2 0 5 2 0 
6 2 0 7 2 0 8 2 0 
9 2 0 10 2 0 11 2 0 
12 2 0 13 2 0 14 2 0 
15 2 0 16 2 0 17 2 0 
18 2 0 19 2 0 20 2 0 
21 2 0 22 2 0 23 2 0 
24 2 0 25 2 0 26 2 0 
27 2 0 28 2 0 29 2 0 
30 2 0 31 2 0 32 2 0 
33 2 0 34 2 0 35 2 0 
36 2 0 37 2 0 38 2 0 
39 2 0 40 2 0 41 2 0 
42 2 0 43 2 0 44 2 0 
45 2 0 46 2 0 47 2 0 
48 2 0 49 2 0 50 2 0 
0 3 0 1 3 0 2 3 0 
3 3 0 4 3 0 5 3 0 
6 3 0 7 3 0 8 3 0 
9 3 0 10 3 0 11 3 0 
12 3 0 13 3 0 14 3 0 
15 3 0 16 3 0 17 3 0 
18 3 0 19 3 0 20 3 0 
21 3 0 22 3 0 23 3 0 
24 3 0 25 3 0 26 3 0 
27 3 0 28 3 0 29 3 0 
30 3 0 31 3 0 32 3 0 
33 3 0 34 3 0 35 3 0 
36 3 0 37 3 0 38 3 0 
39 3 0 40 3 0 41 3 0 
42 3 0 43 3 0 44 3 0 
45 3 0 46 3 0 47 3 0 
48 3 0 49 3 0 50 3 0 
0 4 0 1 4 0 2 4 0 
3 4 0 4 4 0 5 4 0 
6 4 0 7 4 0 8 4 0 
9 4 0 10 4 0 11 4 0 
12 4 0 13 4 0 14 4 0 
15 4 0 16 4 0 17 4 0 
18 4 0 19 4 0 20 4 0 
21 4 0 22 4 0 23 4 0 
24 4 0 25 4 0 26 4 0 
27 4 0 28 4 0 29 4 0 
30 4 0 31 4 0 32 4 0 
33 4 0 34 4 0 35 4 0 
36 4 0 37 4 0 38 4 0 
39 4 0 40 4 0 41 4 0 
42 4 0 43 4 0 44 4 0 
45 4 0 46 4 0 47 4 0 
48 4 0 49 4 0 50 4 0 
0 5 0 1 5 0 2 5 0 
3 5 0 4 5 0 5 5 0 
6 5 0 7 5 0 8 5 0 
9 5 0 10 5 0 11 5 0 
12 5 0 13 5 0 14 5 0 
15 5 0 16 5 0 17 5 0 
18 5 0 19 5 0 20 5 0 
21 5 0 22 5 0 23 5 0 
24 5 0 25 5 0 26 5 0 
27 5 0 28 5 0 29 5 0 
30 5 0 31 5 0 32 5 0 
33 5 0 34 5 0 35 5 0 
36 5 0 37 5 0 38 5 0 
39 5 0 40 5 0 41 5 0 
42 5 0 43 5 0 44 5 0 
45 5 0 46 5 0 47 5 0 
48 5 0 49 5 0 50 5 0 
0 6 0 1 6 0 2 6 0 
3 6 0 4 6 0 5 6 0 
6 6 0 7 6 0 8 6 0 
9 6 0 10 6 0 11 6 0 
12 6 0 13 6 0 14 6 0 
15 6 0 16 6 0 17 6 0 
18 6 0 19 6 0 20 6 0 
21 6 0 22 6 0 23 6 0 
24 6 0 25 6 0 26 6 0 
27 6 0 28 6 0 29 6 0 
30 6 0 31 6 0 32 6 0 
33 6 0 34 6 0 35 6 0 
36 6 0 37 6 0 38 6 0 
39 6 0 40 6 0 41 6 0 
42 6 0 43 6 0 44 6 0 
45 6 0 46 6 0 47 6 0 
48 6 0 49 6 0 50 6 0 
0 7 0 1 7 0 2 7 0 
3 7 0 4 7 0 5 7 0 
6 7 0 7 7 0 8 7 0 
9 7 0 10 7 0 11 7 0 
12 7 0 13 7 0 14 7 0 
15 7 0 16 7 0 17 7 0 
18 7 0 19 7 0 20 7 0 
21 7 0 22 7 0 23 7 0 
24 7 0 25 7 0 26 7 0 
27 7 0 28 7 0 29 7 0 
30 7 0 31 7 0 32 7 0 
33 7 0 34 7 0 35 7 0 
36 7 0 37 7 0 38 7 0 
39 7 0 40 7 0 41 7 0 
42 7 0 43 7 0 44 7 0 
45 7 0 46 7 0 47 7 0 
48 7 0 49 7 0 50 7 0 
0 8 0 1 8 0 2 8 0 
3 8 0 4 8 0 5 8 0 
6 8 0 7 8 0 8 8 0 
9 8 0 10 8 0 11 8 0 
12 8 0 13 8 0 14 8 0 
15 8 0 16 8 0 17 8 0 
18 8 0 19 8 0 20 8 0 
21 8 0 22 8 0 23 8 0 
24 8 0 25 8 0 26 8 0 
27 8 0 28 8 0 29 8 0 
30 8 0 31 8 0 32 8 0 
33 8 0 34 8 0 35 8 0 
36 8 0 37 8 0 38 8 0 
39 8 0 40 8 0 41 8 0 
42 8 0 43 8 0 44 8 0 
45 8 0 46 8 0 47 8 0 
48 8 0 49 8 0 50 8 0 
0 9 0 1 9 0 2 9 0 
3 9 0 4 9 0 5 9 0 
6 9 0 7 9 0 8 9 0 
9 9 0 10 9 0 11 9 0 
12 9 0 13 9 0 14 9 0 
15 9 0 16 9 0 17 9 0 
18 9 0 19 9 0 20 9 0 
21 9 0 22 9 0 23 9 0 
24 9 0 25 9 0 26 9 0 
27 9 0 28 9 0 29 9 0 
30 9 0 31 9 0 32 9 0 
33 9 0 34 9 0 35 9 0 
36 9 0 37 9 0 38 9 0 
39 9 0 40 9 0 41 9 0 
42 9 0 43 9 0 44 9 0 
45 9 0 46 9 0 47 9 0 
48 9 0 49 9 0 50 9 0 
0 10 0 1 10 0 2 10 0 
3 10 0 4 10 0 5 10 0 
6 10 0 7 10 0 8 10 0 
9 10 0 10 10 0 11 10 0 
12 10 0 13 10 0 14 10 0 
15 10 0 16 10 0 17 10 0 
18 10 0 19 10 0 20 10 0 
21 10 0 22 10 0 23 10 0 
24 10 0 25 10 0 26 10 0 
27 10 0 28 10 0 29 10 0 
30 10 0 31 10 0 32 10 0 
33 10 0 34 10 0 35 10 0 
36 10 0 37 10 0 38 10 0 
39 10 0 40 10 0 41 10 0 
42 10 0 43 10 0 44 10 0 
45 10 0 46 10 0 47 10 0 
48 10 0 49 10 0 50 10 0 
0 11 0 1 11 0 2 11 0 
3 11 0 4 11 0 5 11 0 
6 11 0 7 11 0 8 11 0 
9 11 0 10 11 0 11 11 0 
12 11 0 13 11 0 14 11 0 
15 11 0 16 11 0 17 11 0 
18 11 0 19 11 0 20 11 0 
21 11 0 22 11 0 23 11 0 
24 11 0 25 11 0 26 11 0 
27 11 0 28 11 0 29 11 0 
30 11 0 31 11 0 32 11 0 
33 11 0 34 11 0 35 11 0 
36 11 0 37 11 0 38 11 0 
39 11 0 40 11 0 41 11 0 
42 11 0 43 11 0 44 11 0 
45 11 0 46 11 0 47 11 0 
48 11 0 49 11 0 50 11 0 
0 12 0 1 12 0 2 12 0 
3 12 0 4 12 0 5 12 0 
6 12 0 7 12 0 8 12 0 
9 12 0 10 12 0 11 12 0 
12 12 0 13 12 0 14 12 0 
15 12 0 16 12 0 17 12 0 
18 12 0 19 12 0 20 12 0 
21 12 0 22 12 0 23 12 0 
24 12 0 25 12 0 26 12 0 
27 12 0 28 12 0 29 12 0 
30 12 0 31 12 0 32 12 0 
33 12 0 34 12 0 35 12 0 
36 12 0 37 12 0 38 12 0 
39 12 0 40 12 0 41 12 0 
42 12 0 43 12 0 44 12 0 
45 12 0 46 12 0 47 12 0 
48 12 0 49 12 0 50 12 0 
0 13 0 1 13 0 2 13 0 
3 13 0 4 13 0 5 13 0 
6 13 0 7 13 0 8 13 0 
9 13 0 10 13 0 11 13 0 
12 13 0 13 13 0 14 13 0 
15 13 0 16 13 0 17 13 0 
18 13 0 19 13 0 20 13 0 
21 13 0 22 13 0 23 13 0 
24 13 0 25 13 0 26 13 0 
27 13 0 28 13 0 29 13 0 
30 13 0 31 13 0 32 13 0 
33 13 0 34 13 0 35 13 0 
36 13 0 37 13 0 38 13 0 
39 13 0 40 13 0 41 13 0 
42 13 0 43 13 0 44 13 0 
45 13 0 46 13 0 47 13 0 
48 13 0 49 13 0 50 13 0 
0 14 0 1 14 0 2 14 0 
3 14 0 4 14 0 5 14 0 
6 14 0 7 14 0 8 14 0 
9 14 0 10 14 0 11 14 0 
12 14 0 13 14 0 14 14 0 
15 14 0 16 14 0 17 14 0 
18 14 0 19 14 0 20 14 0 
21 14 0 22 14 0 23 14 0 
24 14 0 25 14 0 26 14 0 
27 14 0 28 14 0 29 14 0 
30 14 0 31 14 0 32 14 0 
33 14 0 34 14 0 35 14 0 
36 14 0 37 14 0 38 14 0 
39 14 0 40 14 0 41 14 0 
42 14 0 43 14 0 44 14 0 
45 14 0 46 14 0 47 14 0 
48 14 0 49 14 0 50 14 0 
0 15 0 1 15 0 2 15 0 
3 15 0 4 15 0 5 15 0 
6 15 0 7 15 0 8 15 0 
9 15 0 10 15 0 11 15 0 
12 15 0 13 15 0 14 15 0 
15 15 0 16 15 0 17 15 0 
18 15 0 19 15 0 20 15 0 
21 15 0 22 15 0 23 15 0 
24 15 0 25 15 0 26 15 0 
27 15 0 28 15 0 29 15 0 
30 15 0 31 15 0 32 15 0 
33 15 0 34 15 0 35 15 0 
36 15 0 37 15 0 38 15 0 
39 15 0 40 15 0 41 15 0 
42 15 0 43 15 0 44 15 0 
45 15 0 46 15 0 47 15 0 
48 15 0 49 15 0 50 15 0 
0 16 0 1 16 0 2 16 0 
3 16 0 4 16 0 5 16 0 
6 16 0 7 16 0 8 16 0 
9 16 0 10 16 0 11 16 0 
12 16 0 13 16 0 14 16 0 
15 16 0 16 16 0 17 16 0 
18 16 0 19 16 0 20 16 0 
21 16 0 22 16 0 23 16 0 
24 16 0 25 16 0 26 16 0 
27 16 0 28 16 0 29 16 0 
30 16 0 31 16 0 32 16 0 
33 16 0 34 16 0 35 16 0 
36 16 0 37 16 0 38 16 0 
39 16 0 40 16 0 41 16 0 
42 16 0 43 16 0 44 16 0 
45 16 0 46 16 0 47 16 0 
48 16 0 49 16 0 50 16 0 
0 17 0 1 17 0 2 17 0 
3 17 0 4 17 0 5 17 0 
6 17 0 7 17 0 8 17 0 
9 17 0 10 17 0 11 17 0 
12 17 0 13 17 0 14 17 0 
15 17 0 16 17 0 17 17 0 
18 17 0 19 17 0 20 17 0 
21 17 0 22 17 0 23 17 0 
24 17 0 25 17 0 26 17 0 
27 17 0 28 17 0 29 17 0 
30 17 0 31 17 0 32 17 0 
33 17 0 34 17 0 35 17 0 
36 17 0 37 17 0 38 17 0 
39 17 0 40 17 0 41 17 0 
42 17 0 43 17 0 44 17 0 
45 17 0 46 17 0 47 17 0 
48 17 0 49 17 0 50 17 0 
0 18 0 1 18 0 2 18 0 
3 18 0 4 18 0 5 18 0 
6 18 0 7 18 0 8 18 0 
9 18 0 10 18 0 11 18 0 
12 18 0 13 18 0 14 18 0 
15 18 0 16 18 0 17 18 0 
18 18 0 19 18 0 20 18 0 
21 18 0 22 18 0 23 18 0 
24 18 0 25 18 0 26 18 0 
27 18 0 28 18 0 29 18 0 
30 18 0 31 18 0 32 18 0 
33 18 0 34 18 0 35 18 0 
36 18 0 37 18 0 38 18 0 
39 18 0 40 18 0 41 18 0 
42 18 0 43 18 0 44 18 0 
45 18 0 46 18 0 47 18 0 
48 18 0 49 18 0 50 18 0 
0 19 0 1 19 0 2 19 0 
3 19 0 4 19 0 5 19 0 
6 19 0 7 19 0 8 19 0 
9 19 0 10 19 0 11 19 0 
12 19 0 13 19 0 14 19 0 
15 19 0 16 19 0 17 19 0 
18 19 0 19 19 0 20 19 0 
21 19 0 22 19 0 23 19 0 
24 19 0 25 19 0 26 19 0 
27 19 0 28 19 0 29 19 0 
30 19 0 31 19 0 32 19 0 
33 19 0 34 19 0 35 19 0 
36 19 0 37 19 0 38 19 0 
39 19 0 40 19 0 41 19 0 
42 19 0 43 19 0 44 19 0 
45 19 0 46 19 0 47 19 0 
48 19 0 49 19 0 50 19 0 
0 20 0 1 20 0 2 20 0 
3 20 0 4 20 0 5 20 0 
6 20 0 7 20 0 8 20 0 
9 20 0 10 20 0 11 20 0 
12 20 0 13 20 0 14 20 0 
15 20 0 16 20 0 17 20 0 
18 20 0 19 20 0 20 20 0 
21 20 0 22 20 0 23 20 0 
24 20 0 25 20 0 26 20 0 
27 20 0 28 20 0 29 20 0 
30 20 0 31 20 0 32 20 0 
33 20 0 34 20 0 35 20 0 
36 20 0 37 20 0 38 20 0 
39 20 0 40 20 0 41 20 0 
42 20 0 43 20 0 44 20 0 
45 20 0 46 20 0 47 20 0 
48 20 0 49 20 0 50 20 0 
0 21 0 1 21 0 2 21 0 
3 21 0 4 21 0 5 21 0 
6 21 0 7 21 0 8 21 0 
9 21 0 10 21 0 11 21 0 
12 21 0 13 21 0 14 21 0 
15 21 0 16 21 0 17 21 0 
18 21 0 19 21 0 20 21 0 
21 21 0 22 21 0 23 21 0 
24 21 0 25 21 0 26 21 0 
27 21 0 28 21 0 29 21 0 
30 21 0 31 21 0 32 21 0 
33 21 0 34 21 0 35 21 0 
36 21 0 37 21 0 38 21 0 
39 21 0 40 21 0 41 21 0 
42 21 0 43 21 0 44 21 0 
45 21 0 46 21 0 47 21 0 
48 21 0 49 21 0 50 21 0 
0 22 0 1 22 0 2 22 0 
3 22 0 4 22 0 5 22 0 
6 22 0 7 22 0 8 22 0 
9 22 0 10 22 0 11 22 0 
12 22 0 13 22 0 14 22 0 
15 22 0 16 22 0 17 22 0 
18 22 0 19 22 0 20 22 0 
21 22 0 22 22 0 23 22 0 
24 22 0 25 22 0 26 22 0 
27 22 0 28 22 0 29 22 0 
30 22 0 31 22 0 32 22 0 
33 22 0 34 22 0 35 22 0 
36 22 0 37 22 0 38 22 0 
39 22 0 40 22 0 41 22 0 
42 22 0 43 22 0 44 22 0 
45 22 0 46 22 0 47 22 0 
48 22 0 49 22 0 50 22 0 
0 23 0 1 23 0 2 23 0 
3 23 0 4 23 0 5 23 0 
6 23 0 7 23 0 8 23 0 
9 23 0 10 23 0 11 23 0 
12 23 0 13 23 0 14 23 0 
15 23 0 16 23 0 17 23 0 
18 23 0 19 23 0 20 23 0 
21 23 0 22 23 0 23 23 0 
24 23 0 25 23 0 26 23 0 
27 23 0 28 23 0 29 23 0 
30 23 0 31 23 0 32 23 0 
33 23 0 34 23 0 35 23 0 
36 23 0 37 23 0 38 23 0 
39 23 0 40 23 0 41 23 0 
42 23 0 43 23 0 44 23 0 
45 23 0 46 23 0 47 23 0 
48 23 0 49 23 0 50 23 0 
0 24 0 1 24 0 2 24 0 
3 24 0 4 24 0 5 24 0 
6 24 0 7 24 0 8 24 0 
9 24 0 10 24 0 11 24 0 
12 24 0 13 24 0 14 24 0 
15 24 0 16 24 0 17 24 0 
18 24 0 19 24 0 20 24 0 
21 24 0 22 24 0 23 24 0 
24 24 0 25 24 0 26 24 0 
27 24 0 28 24 0 29 24 0 
30 24 0 31 24 0 32 24 0 
33 24 0 34 24 0 35 24 0 
36 24 0 37 24 0 38 24 0 
39 24 0 40 24 0 41 24 0 
42 24 0 43 24 0 44 24 0 
45 24 0 46 24 0 47 24 0 
48 24 0 49 24 0 50 24 0 
0 25 0 1 25 0 2 25 0 
3 25 0 4 25 0 5 25 0 
[...]
CELL_DATA 2500
SCALARS $\mu_{AB} double
LOOKUP_TABLE default
-0.0017318775447 -0.0014634251475 -0.0012153381213 -0.001550361788 -0.0020841913337 -0.0024456642789 -0.0023217424659 -0.0018892513973 -0.0015395215499 
-0.0015181619825 -0.0017739915302 -0.0020119398931 -0.0019645655472 -0.0011340822684 -0.00072442141391 -0.00062938356626 -0.00062884320644 -0.00053517144463 
-0.00052456309315 -0.00067147521344 -0.0011500808192 -0.0011937010194 -0.0011963517449 -0.0011632265645 -0.0010375193436 -0.00095520859512 -0.0011239760976 
-0.0013107745294 -0.001315619156 -0.0013139283067 -0.0012851173294 -0.0012943884992 -0.0011262033978 -0.0010096814882 -0.00099163205695 -0.0010794934119 
-0.0010267531283 -0.0010083131445 -0.00095924021026 -0.00096090084994 -0.0012872686088 -0.0019912418695 -0.0023466940008 -0.0023653233751 -0.0020455792129 
-0.0015417924934 -0.0011278967081 -0.0010220421888 -0.0012693597452 -0.0016186482226 -0.0020204826903 -0.0018755521945 -0.0016433102008 -0.0018319077633 
-0.0022833587469 -0.0025863394903 -0.0024370517075 -0.002000075701 -0.0016374855209 -0.0015846908435 -0.0017962052306 -0.0020293011359 -0.0020690778297 
-0.0016242587393 -0.0010544794013 -0.0009607109834 -0.00097398528083 -0.00089573961599 -0.00089300023394 -0.0010974719316 -0.0013277181796 -0.0013690353725 
-0.0013443152567 -0.001334871146 -0.0012527161889 -0.0012823056852 -0.00124094491 -0.0011276267899 -0.0010626278523 -0.0010339465572 -0.0010152985061 
-0.0011791256128 -0.0014717150907 -0.0015902714483 -0.0013070995629 -0.0010435847745 -0.00089396980552 -0.00083258404612 -0.00075593804577 -0.00077995075968 
-0.00098245638321 -0.0015695328215 -0.0021819523903 -0.002185997827 -0.001798798858 -0.0012623997948 -0.00080223683392 -0.00082419279143 -0.0012810789786 
-0.0017465115447 -0.0021244851619 -0.0015902816334 -0.0011613081068 -0.0013189681569 -0.0017187882381 -0.0022322499033 -0.0023869158602 -0.0020977938737 
-0.0017809885061 -0.0016928917575 -0.001812125696 -0.0019869184215 -0.0020951625507 -0.0020048385919 -0.0017022813922 -0.0015275166959 -0.0015469431971 
-0.0014882163898 -0.0014522483815 -0.0012712774766 -0.0011558572974 -0.0012550097108 -0.0014759839062 -0.0016419047589 -0.0017351369877 -0.0016213358274 
-0.0012788691066 -0.0010787008186 -0.00092397490884 -0.00084091502266 -0.0008610057331 -0.0011453628662 -0.0015855593815 -0.0019619437211 -0.0014855501531 
-0.0010875605621 -0.00085161280147 -0.00082098299336 -0.0007896868797 -0.00082295452995 -0.001002432012 -0.001296609321 -0.001911312156 -0.0019806302187 
-0.0016230140751 -0.0011764681347 -0.00090759492216 -0.0010724983292 -0.0015676464947 -0.0020271593548 -0.0019463626609 -0.0011653261849 -0.00080697065192 
-0.00088295247625 -0.0011475127612 -0.0015646098375 -0.0020058871001 -0.0020203782373 -0.00172601324 -0.0015093325206 -0.001472044331 -0.0015122196831 
-0.0018227471899 -0.0021199138262 -0.0022244669307 -0.0022006576713 -0.0021325481646 -0.0019228744774 -0.0015601546632 -0.0011499327356 -0.00091300432059 
-0.00094067905883 -0.0012200925113 -0.0016727380826 -0.0019614951492 -0.0018116879344 -0.0013828635326 -0.0011160107209 -0.00091537007656 -0.00079343013682 
-0.00086709734988 -0.0012756930269 -0.0018472209337 -0.0023016221381 -0.0018258428192 -0.0011654497368 -0.00084421935874 -0.00077983414673 -0.00089319730481 
-0.00095084808137 -0.0010816065603 -0.0012392330992 -0.0015067762674 -0.0016073512578 -0.0015604505207 -0.0013346219917 -0.0012881415025 -0.0015487135921 
-0.0019741318188 -0.0022816771653 -0.001662590625 -0.0010176797395 -0.00061734557811 -0.00065973200526 -0.00085250246821 -0.0011769352434 -0.0014808259926 
-0.0016043924232 -0.0012530558044 -0.0010908060626 -0.0010623879429 -0.001087131946 -0.0013213338018 -0.0019432401313 -0.0023637395645 -0.0024540118273 
-0.0023238454471 -0.0019553033433 -0.0013897815178 -0.00084260305209 -0.00058979187022 -0.00070230544533 -0.0010618580017 -0.0015450402057 -0.0019715788837 
-0.0020060338035 -0.0014980708255 -0.001138926418 -0.00089018592285 -0.00079449570193 -0.00095325914333 -0.0014656506789 -0.00224755614 -0.0026601429414 
-0.0023403124707 -0.0013915901734 -0.0009072661653 -0.00082561288119 -0.000917203628 -0.0010351433724 -0.0011589984217 -0.0011982923728 -0.001100928372 
-0.0010735817546 -0.001207105644 -0.0014870640106 -0.0016542134235 -0.0019648158674 -0.002304414428 -0.0023299046576 -0.001573197724 -0.0010457713506 
-0.00073031668534 -0.00077409182 -0.00081775359814 -0.0010530423845 -0.001244729132 -0.0012078885339 -0.0010293385775 -0.00088057938281 -0.00083429560142 
-0.00089733504172 -0.0011230612839 -0.0015688668536 -0.0022505934748 -0.0024180749069 -0.0022594496317 -0.0018239973194 -0.0012126635415 -0.00065914944679 
-0.00041420662161 -0.00064580047013 -0.001153032818 -0.0016676035017 -0.0020594127051 -0.0022053348743 -0.0018398832328 -0.0012801039894 -0.0010019955622 
-0.00092943335557 -0.0011428851913 -0.0018632486628 -0.0026263966394 -0.0028631536652 -0.0026363890594 -0.0019724498703 -0.0011374173793 -0.00094707020889 
-0.0010400911845 -0.0011853567507 -0.0013025671176 -0.0011625135804 -0.00099400446092 -0.00093598901824 -0.0010575485886 -0.0013742291056 -0.001881774738 
-0.0022229854692 -0.0023996326243 -0.0022383564477 -0.0016377494944 -0.0011765429248 -0.00096590405844 -0.0009530407178 -0.00098024844293 -0.0011454632875 
-0.0013574103388 -0.0011930527691 -0.0010566243571 -0.00091482545975 -0.00089708609254 -0.00091328230992 -0.0011048400819 -0.0014006103194 -0.0020474735739 
-0.0022547805982 -0.0021338412009 -0.001725995886 -0.0011204989591 -0.00066526002983 -0.00058539852353 -0.00087712055186 -0.0013853155419 -0.0018949649697 
-0.0022561475559 -0.0023263402394 -0.0019461822928 -0.0013966233567 -0.0010909073682 -0.00099509731479 -0.001310398195 -0.0021204516637 -0.0026605968977 
-0.0027761818354 -0.0025109029758 -0.0019652880385 -0.0014660745772 -0.0012721521182 -0.0013439152946 -0.0014787474703 -0.0014117914791 -0.001218868701 
-0.0010202566928 -0.0009396479257 -0.0011138420817 -0.0014186779173 -0.0018213889509 -0.0021549387322 -0.0022213300538 -0.0021184004537 -0.0017592635447 
-0.0014489474032 -0.001277291712 -0.0012630297235 -0.0012749132076 -0.0014670448047 -0.0016351712371 -0.001342700368 -0.0011552581191 -0.0010430139935 
-0.0010092055779 -0.00099883165281 -0.001117226371 -0.0013476915443 -0.0018126377911 -0.00191221203 -0.0018308131518 -0.0016284692489 -0.0012217092971 
-0.00084529181641 -0.00090323118039 -0.0012582517058 -0.00170923986 -0.0021484501147 -0.0024028499246 -0.0022379741873 -0.0016683064905 -0.0012500510478 
-0.0010146285813 -0.00090509526215 -0.0010496338217 -0.001686534806 -0.0023219807708 -0.0023267263586 -0.0017715995862 -0.0012926532614 -0.0012295018262 
-0.0013130268532 -0.0015118173947 -0.0015789113906 -0.0014241730059 -0.0012066331851 -0.0010157934957 -0.001006664307 -0.0011853910699 -0.0014776529594 
-0.0017638504798 -0.0018282768701 -0.001825585525 -0.0017982116552 -0.0014662579642 -0.0016010375483 -0.0015442726666 -0.0015043285501 -0.001554250419 
-0.0016548249966 -0.0017458424543 -0.0015925806621 -0.0013028395466 -0.0011847643791 -0.0011424525607 -0.001110408399 -0.0011779914683 -0.0013762156428 
-0.0014718379297 -0.0013977899108 -0.0013448467472 -0.001293645318 -0.0012692807049 -0.001176318269 -0.0011704088408 -0.0014466069767 -0.0018409506886 
-0.0021873763807 -0.0022956043425 -0.0019125778229 -0.0014412189595 -0.0011054215985 -0.00090059998376 -0.00080412996099 -0.00095567504631 -0.0012305003836 
-0.0017331645142 -0.0014656070939 -0.0010086443291 -0.00095125647611 -0.0010625204283 -0.001204091184 -0.0013793696859 -0.0015339858894 -0.0013520698797 
-0.0011198690803 -0.00095884156237 -0.00098156443896 -0.0011665863065 -0.0014309340355 -0.0015267092618 -0.0014059418658 -0.0014116752051 -0.0013882763325 
-0.0010475110199 -0.0012616975812 -0.0014790266974 -0.001396071621 -0.0014355579867 -0.0014645381975 -0.0015215129745 -0.0016306691337 -0.0015228041971 
-0.001310682413 -0.0012264211887 -0.0011883001928 -0.0012542262837 -0.0012862765754 -0.0012427958919 -0.0012271424322 -0.0012017638008 -0.0011632952958 
-0.0011465085492 -0.001136252165 -0.0010795507565 -0.0012141603482 -0.001449442984 -0.0016793518789 -0.0018885285414 -0.0015632189381 -0.0012233948257 
-0.00095642723945 -0.00087786216962 -0.00092775772226 -0.0010735792883 -0.0012663238033 -0.0014045509571 -0.00098139206423 -0.00075971030826 -0.00072585977036 
-0.00094483788222 -0.0010902213104 -0.001260919304 -0.0013964346944 -0.0014046786125 -0.0011399209537 -0.00097081764004 -0.0010015102812 -0.0011903331382 
-0.0013296380655 -0.0011274687203 -0.000965035202 -0.00094282016642 -0.00091148471631 -0.00074394463855 -0.00093154506247 -0.0011712397413 -0.0011566922404 
-0.0012187934064 -0.0012476715784 -0.0012861276874 -0.0014064526926 -0.001540392942 -0.0014285597024 -0.0013088973683 -0.0012168561307 -0.0011597084756 
-0.0011529174135 -0.0011407151966 -0.0011400644176 -0.0011259463468 -0.0011020337522 -0.0010665845802 -0.00096554862202 -0.00090033717004 -0.0010352442535 
-0.0011745140057 -0.0012282749565 -0.0013258667244 -0.0013012150083 -0.0010332819281 -0.00086352806298 -0.0008793034533 -0.0010588309989 -0.0012710058201 
-0.0015158462519 -0.0015731774403 -0.0011246905965 -0.00085103491919 -0.00077442408411 -0.00082769979631 -0.00091055226613 -0.0010848024709 -0.0012148780428 
-0.0013471952246 -0.0011948356923 -0.0010319134022 -0.0010533583021 -0.0012109297022 -0.0011023243983 -0.00084129283344 -0.00067267726719 -0.00055526945314 
-0.00052400821909 -0.00071404669619 -0.00090204713181 -0.0010098095237 -0.00096962665527 -0.0010129703002 -0.0010419893788 -0.001103253783 -0.0011887081007 
-0.0013217581559 -0.0012391193223 -0.001224712451 -0.0011395745524 -0.001003460723 -0.0010332525707 -0.0010721465134 -0.001097274716 -0.001127039501 
-0.00110704935 -0.0010346364743 -0.00085022869915 -0.00077327384266 -0.0008544170978 -0.00097606606007 -0.00097759659698 -0.001010375711 -0.0010972063718 
-0.0010428338412 -0.00092979583152 -0.0010283513886 -0.0012637207957 -0.0015732131579 -0.0020025568014 -0.0020482329552 -0.0015069873844 -0.0011150667728 
-0.00091514827814 -0.00076157507008 -0.00077486085296 -0.00090154557192 -0.0010710502732 -0.001136192653 -0.0010363161216 -0.00092829019085 -0.00088943624325 
-0.0010530651001 -0.0010372724256 -0.00081004568238 -0.00068533246913 -0.00059414852487 -0.00056144278364 -0.0011453455677 -0.0012454492755 -0.0010672668411 
-0.00094595621863 -0.00091742823488 -0.00091723180534 -0.0010033558697 -0.0010662327529 -0.0011170420201 -0.0010969299348 -0.00111739439 -0.0010344344957 
-0.0008955327944 -0.00089111487474 -0.0010233034494 -0.0011101084598 -0.0011713924088 -0.0011590722755 -0.0010614560291 -0.00084559586836 -0.00076534734324 
-0.0007983773206 -0.00086702545221 -0.00083387873168 -0.00085892233495 -0.00094515374508 -0.0010904445578 -0.001027983703 -0.0011175797875 -0.0014399160296 
-0.0019550982209 -0.0024326036195 -0.0025098970858 -0.0020602641586 -0.0015037692086 -0.0011913436147 -0.00095752900902 -0.00085233819676 -0.00093395926182 
-0.0010573478088 -0.0010446386645 -0.00098702502481 -0.00089052807415 -0.00081899089965 -0.00086984480936 -0.0011150014763 -0.0011850037128 -0.0011186454377 
-0.0011414321994 -0.0010904533282 -0.0019010731182 -0.0018350380254 -0.0013814392679 -0.0011396489498 -0.0010680702217 -0.0010269229189 -0.0010474483447 
-0.0010746489941 -0.00096527040111 -0.00093566462201 -0.00099100983135 -0.00091601736128 -0.00077783205411 -0.00078230555753 -0.00096045521615 -0.0011440805868 
-0.0012296306934 -0.0012297379028 -0.0011123833063 -0.00091697250874 -0.00087004594272 -0.0009340929317 -0.00088369854754 -0.00080885622635 -0.00081921155037 
-0.00089642902859 -0.00097215334509 -0.00084383506448 -0.00094941980458 -0.0012982941692 -0.0018578129037 -0.0024228990162 -0.0026488992872 -0.0024828038694 
-0.0019795927455 -0.001491530203 -0.0011629487739 -0.0010634675121 -0.00107171707 -0.0010304897864 -0.0010026049945 -0.00096188538914 -0.00083946538491 
-0.00077639712359 -0.0008451717786 -0.0010825118154 -0.0017216994108 -0.0018166951851 -0.0018669144946 -0.0018398866263 -0.0024321724782 -0.0022967810836 
-0.001985369087 -0.0016183309736 -0.0014625591839 -0.0013602639351 -0.0013507464218 -0.0012489194163 -0.0008918792346 -0.00082170924299 -0.00082396008565 
-0.00084541850203 -0.00078804399344 -0.00080004727268 -0.00089467726817 -0.0011729556726 -0.0012889664649 -0.0013423424831 -0.0013230065869 -0.0011075420172 
-0.0010478135028 -0.0010710224575 -0.0010173947111 -0.00092156850604 -0.00092369787521 -0.00093251539378 -0.00079471308336 -0.00070867562981 -0.00083321579079 
-0.0010924736545 -0.0014182396107 -0.0019532371839 -0.0024168554003 -0.0024290779295 -0.0021225820506 -0.0017437270321 -0.0014568282787 -0.0012942874658 
-0.0010757053879 -0.00097500019572 -0.0009402504748 -0.00092916339247 -0.00083161813929 -0.00080262636976 -0.00090096360964 -0.0011498370169 -0.0020027949723 
-0.002378434849 -0.0024654565716 -0.0024567868188 -0.0025650182721 -0.0024790415307 -0.002371150706 -0.0022194022236 -0.0020675735209 -0.0019707876117 
-0.0019431557682 -0.0016549182975 -0.00099621334624 -0.00083939509003 -0.00086446959078 -0.0009463932363 -0.0009410604984 -0.00094580246554 -0.0010542938982 
-0.0012915246262 -0.0013931328708 -0.0015001744559 -0.001601987819 -0.0015265566482 -0.0013435166206 -0.0013383427503 -0.0012778177338 -0.0011883315393 
-0.001247947656 -0.00097860953106 -0.00081259713141 -0.00067782577995 -0.00072470915131 -0.00096478262121 -0.0011795095329 -0.0014473817289 -0.0018881414305 
-0.0019189261649 -0.0016061977901 -0.00138749163 -0.0011662883512 -0.0011050061086 -0.00098294903112 -0.00089441064944 -0.00086495457161 -0.00084025701125 
-0.00086455039427 -0.00087175126563 -0.00096016476602 -0.0012204298056 -0.0020727240315 -0.00251871406 -0.0026471278432 -0.00263216188 -0.0024213922853 
-0.0024892747894 -0.0025197146574 -0.0025103074225 -0.0024739834682 -0.0024040074641 -0.0022539573255 -0.0019608385533 -0.001442768297 -0.0010502414032 
-0.0010756648641 -0.0011622799633 -0.0011715904319 -0.0011848281869 -0.0012598301975 -0.0011707102929 -0.0011123830578 -0.0012159362666 -0.0015162624479 
-0.0018481679271 -0.0019457859962 -0.0018816645729 -0.0018369170463 -0.0018484020053 -0.0016536921586 -0.00120313546 -0.0010211145018 -0.00082375240511 
-0.0007737317827 -0.00092289452756 -0.0010127432136 -0.0011486078997 -0.0013501620603 -0.0012911741256 -0.0012490705534 -0.0011646802049 -0.00098540030332 
-0.00085795004359 -0.00086685317468 -0.00086904681158 -0.00084844154714 -0.00085339357133 -0.0008830357046 -0.00092219051374 -0.0010166601868 -0.0013302403321 
-0.001992901209 -0.0022685430611 -0.0023336266013 -0.0023566068623 -0.0019879314048 -0.0023378859641 -0.0025314362815 -0.002602430338 -0.0025873720663 
-0.002456313857 -0.0021577562918 -0.0018447535049 -0.0016280790649 -0.0014591922355 -0.0013504743238 -0.0014366077405 -0.0014855845056 -0.0015016639209 
-0.0012117463246 -0.00098211703598 -0.00095464709326 -0.0010167495187 -0.0011833146366 -0.0016945768121 -0.0022309918293 -0.0023945015707 -0.0023446159345 
-0.0021873638634 -0.0018781381473 -0.0014209913658 -0.0012058192153 -0.0010397469279 -0.00088532298303 -0.00079135692646 -0.00085647173227 -0.00092685189769 
-0.00099003679421 -0.00096198715344 -0.00098515084614 -0.00094867300073 -0.00078952286457 -0.00070732069181 -0.00074955824066 -0.0010004514076 -0.00099244183792 
-0.0010031388691 -0.001039538497 -0.0010687069692 -0.0011980327209 -0.0015153261253 -0.0016452192147 -0.0014549972949 -0.0014337884576 -0.0016346289986 
-0.00135486584 -0.0019611055761 -0.0024006744552 -0.0025519298259 -0.0024888919166 -0.0021489296674 -0.0016909889223 -0.0014732867087 -0.001397984865 
-0.001546177173 -0.0018379088218 -0.0020326040311 -0.0020237872782 -0.0015988517761 -0.0011329735712 -0.00088175239754 -0.00081945748923 -0.0008593518483 
-0.00098160045819 -0.0013368835209 -0.0020296772957 -0.0023498763991 -0.0021882283718 -0.0019043977873 -0.001702724898 -0.0014889085048 -0.0012700352527 
-0.0010732138827 -0.00090199904581 -0.00079038242096 -0.00079522283992 -0.00084302681983 -0.00079791119748 -0.00077636715583 -0.00078786142524 -0.00083248189612 
-0.00074102637373 -0.00074174772343 -0.00082947625923 -0.0012971742871 -0.0015849374794 -0.0015189160498 -0.00145733514 -0.0015066806574 -0.001627860809 
-0.0014933689238 -0.00105035962 -0.00082879907794 -0.00084743468654 -0.0010052259414 -0.00090390706455 -0.0014418215827 -0.0021189414345 -0.0023448893228 
-0.0021164303398 -0.0015534367686 -0.0011404689233 -0.00099918412695 -0.0010354166242 -0.0013363186592 -0.0018325936115 -0.0022856986537 -0.0022558952249 
-0.0016299170958 -0.0011646004537 -0.00085258818996 -0.00080603855744 -0.00081187274634 -0.00085708774119 -0.0011522019194 -0.001630110398 -0.0018610373379 
-0.0015314052878 -0.0014034599409 -0.0013474003636 -0.0013344052728 -0.0013171721876 -0.0011335973452 -0.00095626572735 -0.0008353618359 -0.00085028441792 
-0.00090810590629 -0.00075795759446 -0.00071835939905 -0.00074166496252 -0.00087307467836 -0.00093644540692 -0.0009156633379 -0.0010597476551 -0.0016363609163 
-0.0019566387674 -0.0019398931403 -0.0018868807632 -0.0018900419538 -0.0018136009838 -0.0012906410093 -0.0008862059938 -0.00064416244357 -0.000546777178 
-0.00062694631 -0.00071196579503 -0.0010700761034 -0.0017808904697 -0.0019774515958 -0.0015675923262 -0.0010819940358 -0.00068862994907 -0.00052034847613 
-0.0007087033227 -0.0012019833274 -0.0017916465878 -0.0023637812246 -0.0024082646189 -0.0017739068421 -0.0011829004832 -0.00081764619643 -0.00072231555548 
-0.00073524711482 -0.00081346069721 -0.0010765038099 -0.0014199377393 -0.0013161641249 -0.0010615408417 -0.00099516063481 -0.0010348396195 -0.0011405652651 
-0.0012581553815 -0.0012818608284 -0.0011199719783 -0.0010163882449 -0.0010261481128 -0.0010283787921 -0.00089554778441 -0.00080443168227 -0.00084945024718 
-0.00099179159339 -0.0010938072248 -0.0011343118417 -0.0013685519855 -0.0018909216145 -0.0019570997514 -0.0018419420328 -0.0017587280555 -0.0017639781856 
-0.0017666063085 -0.0013000666663 -0.0010221593861 -0.00075629549979 -0.00063535081059 -0.00054934036796 -0.00072439708255 -0.0010098446285 -0.0016194492941 
-0.0015981240821 -0.0012966401372 -0.00091737077962 -0.00053706200674 -0.00036563953815 -0.00063374035269 -0.0012222443992 -0.001924649731 -0.0025103955747 
-0.0025992338316 -0.0021430845956 -0.0012785651881 -0.00084496309976 -0.00075556831598 -0.00083733582574 -0.0010062262228 -0.001353941304 -0.0016326805701 
-0.0012428043884 -0.00090626065865 -0.00079418222073 -0.00093052538896 -0.0011156379966 -0.0012751292249 -0.0013819774636 -0.0012348598489 -0.0010352360892 
-0.0010105323335 -0.0010316152148 -0.001041264148 -0.00098365926022 -0.0010117466994 -0.0011794816365 -0.0012933265908 -0.001392675293 -0.0017521380436 
-0.0018971110414 -0.0017482704165 -0.0015134616989 -0.0013905309409 -0.0014509689704 -0.0016014941358 -0.0014425920858 -0.0011921477233 -0.0009764665585 
-0.00084093132086 -0.00066423206794 -0.00100367984 -0.0014956588848 -0.0016348442867 -0.0014529606511 -0.0012633125819 -0.00106361371 -0.0008193837235 
-0.00074168564221 -0.00096424433229 -0.00155108518 -0.0022947220995 -0.0027146005102 -0.0027570575559 -0.0024685585789 -0.0017539183385 -0.0010559351096 
-0.0010181485246 -0.0012490663552 -0.0016378788941 -0.0022199913025 -0.0021668755581 -0.0014939390162 -0.0010009110994 -0.00081655124229 -0.00093314725542 
-0.0011500147961 -0.0013203078701 -0.0013680539744 -0.0011018717467 -0.000986982215 -0.00098580360169 -0.0010135651371 -0.0010468748567 -0.0011298113652 
-0.0012781179581 -0.0014136105447 -0.001556506416 -0.0017375036563 -0.0018722068055 -0.0017956210042 -0.0015451333451 -0.0011986406129 -0.0010495242061 
-0.0012421972649 -0.0015299014172 -0.0016620675603 -0.001391802158 -0.0011779516788 -0.0010461096993 -0.00093325627825 -0.0016616382929 -0.0018651524617 