# vtk DataFile Version 4.2
vtk output
ASCII
DATASET UNSTRUCTURED_GRID
POINTS 2601 double
0 0 0 1 0 0 2 0 0 
3 0 0 4 0 0 5 0 0 
6 0 0 7 0 0 8 0 0 
9 0 0 10 0 0 11 0 0 
12 0 0 13 0 0 14 0 0 
15 0 0 16 0 0 17 0 0 
18 0 0 19 0 0 20 0 0 
21 0 0 22 0 0 23 0 0 
24 0 0 25 0 0 26 0 0 
27 0 0 28 0 0 29 0 0 
30 0 0 31 0 0 32 0 0 
33 0 0 34 0 0 35 0 0 
36 0 0 37 0 0 38 0 0 
39 0 0 40 0 0 41 0 0 
42 0 0 43 0 0 44 0 0 
45 0 0 46 0 0 47 0 0 
48 0 0 49 0 0 50 0 0 
0 1 0 1 1 0 2 1 0 
3 1 0 4 1 0 5 1 0 
6 1 0 7 1 0 8 1 0 
9 1 0 10 1 0 11 1 0 
12 1 0 13 1 0 14 1 0 
15 1 0 16 1 0 17 1 0 
18 1 0 19 1 0 20 1 0 
21 1 0 22 1 0 23 1 0 
24 1 0 25 1 0 26 1 0 
27 1 0 28 1 0 29 1 0 
30 1 0 31 1 0 32 1 0 
33 1 0 34 1 0 35 1 0 
36 1 0 37 1 0 38 1 0 
39 1 0 40 1 0 41 1 0 
42 1 0 43 1 0 44 1 0 
45 1 0 46 1 0 47 1 0 
48 1 0 49 1 0 50 1 0 
0 2 0 1 2 0 2 2 0 
3 2 0 4 2 0 5 2 0 
6 2 0 7 2 0 8 2 0 
9 2 0 10 2 0 11 2 0 
12 2 0 13 2 0 14 2 0 
15 2 0 16 2 0 17 2 0 
18 2 0 19 2 0 20 2 0 
21 2 0 22 2 0 23 2 0 
24 2 0 25 2 0 26 2 0 
27 2 0 28 2 0 29 2 0 
30 2 0 31 2 0 32 2 0 
33 2 0 34 2 0 35 2 0 
36 2 0 37 2 0 38 2 0 
39 2 0 40 2 0 41 2 0 
42 2 0 43 2 0 44 2 0 
45 2 0 46 2 0 47 2 0 
48 2 0 49 2 0 50 2 0 
0 3 0 1 3 0 2 3 0 
3 3 0 4 3 0 5 3 0 
6 3 0 7 3 0 8 3 0 
9 3 0 10 3 0 11 3 0 
12 3 0 13 3 0 14 3 0 
15 3 0 16 3 0 17 3 0 
18 3 0 19 3 0 20 3 0 
21 3 0 22 3 0 23 3 0 
24 3 0 25 3 0 26 3 0 
27 3 0 28 3 0 29 3 0 
30 3 0 31 3 0 32 3 0 
33 3 0 34 3 0 35 3 0 
36 3 0 37 3 0 38 3 0 
39 3 0 40 3 0 41 3 0 
42 3 0 43 3 0 44 3 0 
45 3 0 46 3 0 47 3 0 
48 3 0 49 3 0 50 3 0 
0 4 0 1 4 0 2 4 0 
3 4 0 4 4 0 5 4 0 
6 4 0 7 4 0 8 4 0 
9 4 0 10 4 0 11 4 0 
12 4 0 13 4 0 14 4 0 
15 4 0 16 4 0 17 4 0 
18 4 0 19 4 0 20 4 0 
21 4 0 22 4 0 23 4 0 
24 4 0 25 4 0 26 4 0 
27 4 0 28 4 0 29 4 0 
30 4 0 31 4 0 32 4 0 
33 4 0 34 4 0 35 4 0 
36 4 0 37 4 0 38 4 0 
39 4 0 40 4 0 41 4 0 
42 4 0 43 4 0 44 4 0 
45 4 0 46 4 0 47 4 0 
48 4 0 49 4 0 50 4 0 
0 5 0 1 5 0 2 5 0 
3 5 0 4 5 0 5 5 0 
6 5 0 7 5 0 8 5 0 
9 5 0 10 5 0 11 5 0 
12 5 0 13 5 0 14 5 0 
15 5 0 16 5 0 17 5 0 
18 5 0 19 5 0 20 5 0 
21 5 0 22 5 0 23 5 0 
24 5 0 25 5 0 26 5 0 
27 5 0 28 5 0 29 5 0 
30 5 0 31 5 0 32 5 0 
33 5 0 34 5 0 35 5 0 
36 5 0 37 5 0 38 5 0 
39 5 0 40 5 0 41 5 0 
42 5 0 43 5 0 44 5 0 
45 5 0 46 5 0 47 5 0 
48 5 0 49 5 0 50 5 0 
0 6 0 1 6 0 2 6 0 
3 6 0 4 6 0 5 6 0 
6 6 0 7 6 0 8 6 0 
9 6 0 10 6 0 11 6 0 
12 6 0 13 6 0 14 6 0 
15 6 0 16 6 0 17 6 0 
18 6 0 19 6 0 20 6 0 
21 6 0 22 6 0 23 6 0 
24 6 0 25 6 0 26 6 0 
27 6 0 28 6 0 29 6 0 
30 6 0 31 6 0 32 6 0 
33 6 0 34 6 0 35 6 0 
36 6 0 37 6 0 38 6 0 
39 6 0 40 6 0 41 6 0 
42 6 0 43 6 0 44 6 0 
45 6 0 46 6 0 47 6 0 
48 6 0 49 6 0 50 6 0 
0 7 0 1 7 0 2 7 0 
3 7 0 4 7 0 5 7 0 
6 7 0 7 7 0 8 7 0 
9 7 0 10 7 0 11 7 0 
12 7 0 13 7 0 14 7 0 
15 7 0 16 7 0 17 7 0 
18 7 0 19 7 0 20 7 0 
21 7 0 22 7 0 23 7 0 
24 7 0 25 7 0 26 7 0 
27 7 0 28 7 0 29 7 0 
30 7 0 31 7 0 32 7 0 
33 7 0 34 7 0 35 7 0 
36 7 0 37 7 0 38 7 0 
39 7 0 40 7 0 41 7 0 
42 7 0 43 7 0 44 7 0 
45 7 0 46 7 0 47 7 0 
48 7 0 49 7 0 50 7 0 
0 8 0 1 8 0 2 8 0 
3 8 0 4 8 0 5 8 0 
6 8 0 7 8 0 8 8 0 
9 8 0 10 8 0 11 8 0 
12 8 0 13 8 0 14 8 0 
15 8 0 16 8 0 17 8 0 
18 8 0 19 8 0 20 8 0 
21 8 0 22 8 0 23 8 0 
24 8 0 25 8 0 26 8 0 
27 8 0 28 8 0 29 8 0 
30 8 0 31 8 0 32 8 0 
33 8 0 34 8 0 35 8 0 
36 8 0 37 8 0 38 8 0 
39 8 0 40 8 0 41 8 0 
42 8 0 43 8 0 44 8 0 
45 8 0 46 8 0 47 8 0 
48 8 0 49 8 0 50 8 0 
0 9 0 1 9 0 2 9 0 
3 9 0 4 9 0 5 9 0 
6 9 0 7 9 0 8 9 0 
9 9 0 10 9 0 11 9 0 
12 9 0 13 9 0 14 9 0 
15 9 0 16 9 0 17 9 0 
18 9 0 19 9 0 20 9 0 
21 9 0 22 9 0 23 9 0 
24 9 0 25 9 0 26 9 0 
27 9 0 28 9 0 29 9 0 
30 9 0 31 9 0 32 9 0 
33 9 0 34 9 0 35 9 0 
36 9 0 37 9 0 38 9 0 
39 9 0 40 9 0 41 9 0 
42 9 0 43 9 0 44 9 0 
45 9 0 46 9 0 47 9 0 
48 9 0 49 9 0 50 9 0 
0 10 0 1 10 0 2 10 0 
3 10 0 4 10 0 5 10 0 
6 10 0 7 10 0 8 10 0 
9 10 0 10 10 0 11 10 0 
12 10 0 13 10 0 14 10 0 
15 10 0 16 10 0 17 10 0 
18 10 0 19 10 0 20 10 0 
21 10 0 22 10 0 23 10 0 
24 10 0 25 10 0 26 10 0 
27 10 0 28 10 0 29 10 0 
30 10 0 31 10 0 32 10 0 
33 10 0 34 10 0 35 10 0 
36 10 0 37 10 0 38 10 0 
39 10 0 40 10 0 41 10 0 
42 10 0 43 10 0 44 10 0 
45 10 0 46 10 0 47 10 0 
48 10 0 49 10 0 50 10 0 
0 11 0 1 11 0 2 11 0 
3 11 0 4 11 0 5 11 0 
6 11 0 7 11 0 8 11 0 
9 11 0 10 11 0 11 11 0 
12 11 0 13 11 0 14 11 0 
15 11 0 16 11 0 17 11 0 
18 11 0 19 11 0 20 11 0 
21 11 0 22 11 0 23 11 0 
24 11 0 25 11 0 26 11 0 
27 11 0 28 11 0 29 11 0 
30 11 0 31 11 0 32 11 0 
33 11 0 34 11 0 35 11 0 
36 11 0 37 11 0 38 11 0 
39 11 0 40 11 0 41 11 0 
42 11 0 43 11 0 44 11 0 
45 11 0 46 11 0 47 11 0 
48 11 0 49 11 0 50 11 0 
0 12 0 1 12 0 2 12 0 
3 12 0 4 12 0 5 12 0 
6 12 0 7 12 0 8 12 0 
9 12 0 10 12 0 11 12 0 
12 12 0 13 12 0 14 12 0 
15 12 0 16 12 0 17 12 0 
18 12 0 19 12 0 20 12 0 
21 12 0 22 12 0 23 12 0 
24 12 0 25 12 0 26 12 0 
27 12 0 28 12 0 29 12 0 
30 12 0 31 12 0 32 12 0 
33 12 0 34 12 0 35 12 0 
36 12 0 37 12 0 38 12 0 
39 12 0 40 12 0 41 12 0 
42 12 0 43 12 0 44 12 0 
45 12 0 46 12 0 47 12 0 
48 12 0 49 12 0 50 12 0 
0 13 0 1 13 0 2 13 0 
3 13 0 4 13 0 5 13 0 
6 13 0 7 13 0 8 13 0 
9 13 0 10 13 0 11 13 0 
12 13 0 13 13 0 14 13 0 
15 13 0 16 13 0 17 13 0 
18 13 0 19 13 0 20 13 0 
21 13 0 22 13 0 23 13 0 
24 13 0 25 13 0 26 13 0 
27 13 0 28 13 0 29 13 0 
30 13 0 31 13 0 32 13 0 
33 13 0 34 13 0 35 13 0 
36 13 0 37 13 0 38 13 0 
39 13 0 40 13 0 41 13 0 
42 13 0 43 13 0 44 13 0 
45 13 0 46 13 0 47 13 0 
48 13 0 49 13 0 50 13 0 
0 14 0 1 14 0 2 14 0 
3 14 0 4 14 0 5 14 0 
6 14 0 7 14 0 8 14 0 
9 14 0 10 14 0 11 14 0 
12 14 0 13 14 0 14 14 0 
15 14 0 16 14 0 17 14 0 
18 14 0 19 14 0 20 14 0 
21 14 0 22 14 0 23 14 0 
24 14 0 25 14 0 26 14 0 
27 14 0 28 14 0 29 14 0 
30 14 0 31 14 0 32 14 0 
33 14 0 34 14 0 35 14 0 
36 14 0 37 14 0 38 14 0 
39 14 0 40 14 0 41 14 0 
42 14 0 43 14 0 44 14 0 
45 14 0 46 14 0 47 14 0 
48 14 0 49 14 0 50 14 0 
0 15 0 1 15 0 2 15 0 
3 15 0 4 15 0 5 15 0 
6 15 0 7 15 0 8 15 0 
9 15 0 10 15 0 11 15 0 
12 15 0 13 15 0 14 15 0 
15 15 0 16 15 0 17 15 0 
18 15 0 19 15 0 20 15 0 
21 15 0 22 15 0 23 15 0 
24 15 0 25 15 0 26 15 0 
27 15 0 28 15 0 29 15 0 
30 15 0 31 15 0 32 15 0 
33 15 0 34 15 0 35 15 0 
36 15 0 37 15 0 38 15 0 
39 15 0 40 15 0 41 15 0 
42 15 0 43 15 0 44 15 0 
45 15 0 46 15 0 47 15 0 
48 15 0 49 15 0 50 15 0 
0 16 0 1 16 0 2 16 0 
3 16 0 4 16 0 5 16 0 
6 16 0 7 16 0 8 16 0 
9 16 0 10 16 0 11 16 0 
12 16 0 13 16 0 14 16 0 
15 16 0 16 16 0 17 16 0 
18 16 0 19 16 0 20 16 0 
21 16 0 22 16 0 23 16 0 
24 16 0 25 16 0 26 16 0 
27 16 0 28 16 0 29 16 0 
30 16 0 31 16 0 32 16 0 
33 16 0 34 16 0 35 16 0 
36 16 0 37 16 0 38 16 0 
39 16 0 40 16 0 41 16 0 
42 16 0 43 16 0 44 16 0 
45 16 0 46 16 0 47 16 0 
48 16 0 49 16 0 50 16 0 
0 17 0 1 17 0 2 17 0 
3 17 0 4 17 0 5 17 0 
6 17 0 7 17 0 8 17 0 
9 17 0 10 17 0 11 17 0 
12 17 0 13 17 0 14 17 0 
15 17 0 16 17 0 17 17 0 
18 17 0 19 17 0 20 17 0 
21 17 0 22 17 0 23 17 0 
24 17 0 25 17 0 26 17 0 
27 17 0 28 17 0 29 17 0 
30 17 0 31 17 0 32 17 0 
33 17 0 34 17 0 35 17 0 
36 17 0 37 17 0 38 17 0 
39 17 0 40 17 0 41 17 0 
42 17 0 43 17 0 44 17 0 
45 17 0 46 17 0 47 17 0 
48 17 0 49 17 0 50 17 0 
0 18 0 1 18 0 2 18 0 
3 18 0 4 18 0 5 18 0 
6 18 0 7 18 0 8 18 0 
9 18 0 10 18 0 11 18 0 
12 18 0 13 18 0 14 18 0 
15 18 0 16 18 0 17 18 0 
18 18 0 19 18 0 20 18 0 
21 18 0 22 18 0 23 18 0 
24 18 0 25 18 0 26 18 0 
27 18 0 28 18 0 29 18 0 
30 18 0 31 18 0 32 18 0 
33 18 0 34 18 0 35 18 0 
36 18 0 37 18 0 38 18 0 
39 18 0 40 18 0 41 18 0 
42 18 0 43 18 0 44 18 0 
45 18 0 46 18 0 47 18 0 
48 18 0 49 18 0 50 18 0 
0 19 0 1 19 0 2 19 0 
3 19 0 4 19 0 5 19 0 
6 19 0 7 19 0 8 19 0 
9 19 0 10 19 0 11 19 0 
12 19 0 13 19 0 14 19 0 
15 19 0 16 19 0 17 19 0 
18 19 0 19 19 0 20 19 0 
21 19 0 22 19 0 23 19 0 
24 19 0 25 19 0 26 19 0 
27 19 0 28 19 0 29 19 0 
30 19 0 31 19 0 32 19 0 
33 19 0 34 19 0 35 19 0 
36 19 0 37 19 0 38 19 0 
39 19 0 40 19 0 41 19 0 
42 19 0 43 19 0 44 19 0 
45 19 0 46 19 0 47 19 0 
48 19 0 49 19 0 50 19 0 
0 20 0 1 20 0 2 20 0 
3 20 0 4 20 0 5 20 0 
6 20 0 7 20 0 8 20 0 
9 20 0 10 20 0 11 20 0 
12 20 0 13 20 0 14 20 0 
15 20 0 16 20 0 17 20 0 
18 20 0 19 20 0 20 20 0 
21 20 0 22 20 0 23 20 0 
24 20 0 25 20 0 26 20 0 
27 20 0 28 20 0 29 20 0 
30 20 0 31 20 0 32 20 0 
33 20 0 34 20 0 35 20 0 
36 20 0 37 20 0 38 20 0 
39 20 0 40 20 0 41 20 0 
42 20 0 43 20 0 44 20 0 
45 20 0 46 20 0 47 20 0 
48 20 0 49 20 0 50 20 0 
0 21 0 1 21 0 2 21 0 
3 21 0 4 21 0 5 21 0 
6 21 0 7 21 0 8 21 0 
9 21 0 10 21 0 11 21 0 
12 21 0 13 21 0 14 21 0 
15 21 0 16 21 0 17 21 0 
18 21 0 19 21 0 20 21 0 
21 21 0 22 21 0 23 21 0 
24 21 0 25 21 0 26 21 0 
27 21 0 28 21 0 29 21 0 
30 21 0 31 21 0 32 21 0 
33 21 0 34 21 0 35 21 0 
36 21 0 37 21 0 38 21 0 
39 21 0 40 21 0 41 21 0 
42 21 0 43 21 0 44 21 0 
45 21 0 46 21 0 47 21 0 
48 21 0 49 21 0 50 21 0 
0 22 0 1 22 0 2 22 0 
3 22 0 4 22 0 5 22 0 
6 22 0 7 22 0 8 22 0 
9 22 0 10 22 0 11 22 0 
12 22 0 13 22 0 14 22 0 
15 22 0 16 22 0 17 22 0 
18 22 0 19 22 0 20 22 0 
21 22 0 22 22 0 23 22 0 
24 22 0 25 22 0 26 22 0 
27 22 0 28 22 0 29 22 0 
30 22 0 31 22 0 32 22 0 
33 22 0 34 22 0 35 22 0 
36 22 0 37 22 0 38 22 0 
39 22 0 40 22 0 41 22 0 
42 22 0 43 22 0 44 22 0 
45 22 0 46 22 0 47 22 0 
48 22 0 49 22 0 50 22 0 
0 23 0 1 23 0 2 23 0 
3 23 0 4 23 0 5 23 0 
6 23 0 7 23 0 8 23 0 
9 23 0 10 23 0 11 23 0 
12 23 0 13 23 0 14 23 0 
15 23 0 16 23 0 17 23 0 
18 23 0 19 23 0 20 23 0 
21 23 0 22 23 0 23 23 0 
24 23 0 25 23 0 26 23 0 
27 23 0 28 23 0 29 23 0 
30 23 0 31 23 0 32 23 0 
33 23 0 34 23 0 35 23 0 
36 23 0 37 23 0 38 23 0 
39 23 0 40 23 0 41 23 0 
42 23 0 43 23 0 44 23 0 
45 23 0 46 23 0 47 23 0 
48 23 0 49 23 0 50 23 0 
0 24 0 1 24 0 2 24 0 
3 24 0 4 24 0 5 24 0 
6 24 0 7 24 0 8 24 0 
9 24 0 10 24 0 11 24 0 
12 24 0 13 24 0 14 24 0 
15 24 0 16 24 0 17 24 0 
18 24 0 19 24 0 20 24 0 
21 24 0 22 24 0 23 24 0 
24 24 0 25 24 0 26 24 0 
27 24 0 28 24 0 29 24 0 
30 24 0 31 24 0 32 24 0 
33 24 0 34 24 0 35 24 0 
36 24 0 37 24 0 38 24 0 
39 24 0 40 24 0 41 24 0 
42 24 0 43 24 0 44 24 0 
45 24 0 46 24 0 47 24 0 
48 24 0 49 24 0 50 24 0 
0 25 0 1 25 0 2 25 0 
3 25 0 4 25 0 5 25 0 
[...]
CELL_DATA 2500
SCALARS $\mu_{AB} double
LOOKUP_TABLE default
-0.0012329764458 -0.00089428301611 -0.00074133126552 -0.0011052650433 -0.0016242294863 -0.0020689222549 -0.0020637601218 -0.0017907080967 -0.0015208408691 
-0.0014876760368 -0.0016778477745 -0.0018346325164 -0.0017328652243 -0.00089577609583 -0.00065288531789 -0.0006681400479 -0.00073013465734 -0.00059428503955 
-0.00050447333254 -0.00056749949629 -0.00095910112551 -0.0010867526607 -0.0011328144736 -0.0011224022967 -0.0010264887342 -0.00092670538759 -0.00097698154687 
-0.0011091106205 -0.001115875379 -0.0010835691152 -0.0010504008589 -0.0010979902357 -0.00098330551679 -0.00087184245268 -0.0008370498499 -0.00092686498291 
-0.00092284217797 -0.0009357754017 -0.00093358079048 -0.00094613093488 -0.0011225860404 -0.0016660531429 -0.0019949270386 -0.002003171144 -0.0017412715115 
-0.0014131094411 -0.001134822937 -0.00097395754999 -0.0010579095839 -0.0012068104167 -0.0015336417556 -0.0013338890195 -0.0011311280408 -0.0013163652672 
-0.0017710469762 -0.0021871906529 -0.0021820565114 -0.0019047976219 -0.0016263804515 -0.0015527870507 -0.0016833793092 -0.0018291435439 -0.0018075707114 
-0.001317041771 -0.00093447754212 -0.0009552092995 -0.0010220040998 -0.00094110040586 -0.00084893657719 -0.00088389690861 -0.000974511766 -0.001087660062 
-0.0011689148706 -0.0011841752784 -0.0011126310282 -0.0010747206943 -0.0010988208993 -0.0010800061131 -0.0010417608961 -0.00099731829534 -0.00096547415247 
-0.0010285679808 -0.0011143692657 -0.0011536137963 -0.001016070667 -0.00093744855701 -0.00087742687215 -0.00085566139169 -0.00082851398559 -0.00084427783194 
-0.00095056306006 -0.0012844957039 -0.001819588211 -0.0018027338004 -0.0015216948287 -0.0012033136879 -0.0009567073788 -0.00091983316446 -0.0011737408235 
-0.0013931390203 -0.0016288270728 -0.0011462607724 -0.00096272557828 -0.0010949446067 -0.0013635530377 -0.0017909627303 -0.0020928381669 -0.0019418103566 
-0.0016932016447 -0.0015881285467 -0.0016456267497 -0.001740161847 -0.0017979252546 -0.0017090241249 -0.0014916499624 -0.0014420480729 -0.0015593889481 
-0.0015244825443 -0.0014274142567 -0.0010468495945 -0.00073477664438 -0.00079189644555 -0.0011009330897 -0.0012969758881 -0.0013615696665 -0.0012852854566 
-0.0011560370557 -0.001092650025 -0.0010278693214 -0.00095363016219 -0.000942383332 -0.0010708411758 -0.0012298301167 -0.0014749268031 -0.0011583267282 
-0.00099637148953 -0.00088482202491 -0.00086797486778 -0.00085073369199 -0.00086551228092 -0.00095200091069 -0.0010965299698 -0.0015388483706 -0.0015505062832 
-0.0012719052706 -0.0010257693806 -0.00091411400878 -0.0011069391332 -0.0014124138723 -0.0016492867107 -0.0014139584862 -0.001004678552 -0.00086520766778 
-0.0009415444802 -0.0011067648486 -0.0013222181461 -0.0016630174036 -0.0017865827348 -0.0015632413942 -0.001363125445 -0.0013034717231 -0.0012850503445 
-0.0015270516652 -0.0018496458618 -0.0020599522318 -0.0021615943448 -0.0022292626561 -0.0020614151925 -0.0015676572549 -0.00096359805116 -0.00059997986484 
-0.00060888915495 -0.00093343634881 -0.0013447177879 -0.001566252542 -0.0014375703567 -0.0012079416532 -0.0010990451056 -0.00099885151527 -0.0009143294641 
-0.00097093113383 -0.0011798118681 -0.0014468956866 -0.0018214528134 -0.0014211026381 -0.0010690663346 -0.00090503964282 -0.0008694855821 -0.00090667075918 
-0.00092990425745 -0.00098743767057 -0.0010624965171 -0.0012149688737 -0.0012466259723 -0.0011899607613 -0.0010660314371 -0.0011286592585 -0.0013926880389 
-0.0016964166314 -0.0018566571231 -0.0013169129881 -0.0010239024514 -0.00086609660284 -0.00091576854032 -0.00098495643475 -0.0011007763398 -0.0012277228793 
-0.0013307960354 -0.0011199849534 -0.0010449195167 -0.0010296334597 -0.0010346285965 -0.0011684568764 -0.001688831578 -0.0022243352096 -0.0024760575401 
-0.0024704846772 -0.0021101529848 -0.0014449166283 -0.00075246323195 -0.00041810832978 -0.00056092266332 -0.00095691692696 -0.0013841746758 -0.0016870106763 
-0.0016484709607 -0.0012456632118 -0.0010655711284 -0.00091776171914 -0.00086446590254 -0.00098485680648 -0.0012790167229 -0.0017894788311 -0.0022269805404 
-0.0019241527802 -0.0011946380888 -0.00093368512837 -0.00087665536337 -0.00090878520842 -0.0009633603448 -0.001026432389 -0.0010928016608 -0.0010445466833 
-0.0010280570284 -0.0010897203038 -0.0011869364566 -0.0013312170625 -0.0016613423806 -0.0019649125789 -0.0018845343438 -0.001308158483 -0.0010688537129 
-0.0009712472464 -0.00093928248395 -0.00091539341813 -0.00098433127299 -0.0010383569018 -0.0010381100097 -0.00097746819681 -0.00092346636438 -0.00091033690602 
-0.00093761580803 -0.0010572260259 -0.0013503950157 -0.0020744738249 -0.0023889979843 -0.0023413878119 -0.001908999632 -0.0012212046912 -0.00057258097655 
-0.00034356359209 -0.00073176914237 -0.0012371950789 -0.0016573904595 -0.0018970917648 -0.0019089888494 -0.0014902383917 -0.0010885906942 -0.00091254047012 
-0.00087149347271 -0.0010205257932 -0.0014837078514 -0.0022189920498 -0.0024896619499 -0.0022629989583 -0.0016212221587 -0.0010357867107 -0.000920166754 
-0.00095136677696 -0.0010296040835 -0.001154820533 -0.0011234893081 -0.0010307620936 -0.001003803858 -0.0010801656312 -0.0012301122773 -0.0015611240749 
-0.0019142242557 -0.0020793425352 -0.0018243354941 -0.0013049945874 -0.0010954013497 -0.0010143303382 -0.0009763277183 -0.000947647024 -0.00098067095906 
-0.0010558958785 -0.0010370571698 -0.0010045284925 -0.00096495773757 -0.00096636180464 -0.00095647546765 -0.0010427926334 -0.0012164323964 -0.0018204081121 
-0.0021279496702 -0.0020967005326 -0.0016585436815 -0.00093979181307 -0.00044674093719 -0.00043510984559 -0.00086056026616 -0.001408188026 -0.00184091792 
-0.0020770784364 -0.0020317281173 -0.0016073242613 -0.0011859904826 -0.00097081700184 -0.00090012246189 -0.0010822353402 -0.0017286709046 -0.0022895400299 
-0.0024221795416 -0.0021405062711 -0.0016116045688 -0.0012215080809 -0.0010682851738 -0.001087485312 -0.0012285507627 -0.0012648181143 -0.0012026591182 
-0.0011006325367 -0.001062520775 -0.0011598294995 -0.0013051616789 -0.0015237608249 -0.0018412093626 -0.0019233702106 -0.0017495248458 -0.0013808509076 
-0.0011561517651 -0.0010896816693 -0.0010696952758 -0.0010461334809 -0.0011090450866 -0.0012232239278 -0.0011289730732 -0.0010770976449 -0.001055222888 
-0.0010414298557 -0.0010126480596 -0.0010508923766 -0.0011730066406 -0.0015745570379 -0.0017350903522 -0.0017083676882 -0.0014992336477 -0.00097018844349 
-0.00053025095106 -0.00063919986116 -0.0010722609194 -0.0015523037228 -0.0019519788427 -0.0021234623466 -0.0018928083427 -0.0014113515425 -0.0011567446631 
-0.00098965445777 -0.00090808723293 -0.00098837593904 -0.0013526028334 -0.0019447919344 -0.0019457921684 -0.0014075688983 -0.001139261604 -0.0011176250758 
-0.0011540563349 -0.0012216217547 -0.001295935146 -0.0012762955035 -0.0012023052271 -0.0011047404368 -0.0010925913676 -0.0011850483809 -0.0013128911242 
-0.0014437230714 -0.0015507890111 -0.0016328017419 -0.0015515444566 -0.0012113042589 -0.0011840605594 -0.0011533972821 -0.0011608667889 -0.0012421441939 
-0.0013312438137 -0.0013578371211 -0.0012692344117 -0.001150635561 -0.0011213627424 -0.0011000663089 -0.0010674400503 -0.0010816904851 -0.0011960993016 
-0.0013176147026 -0.0013181251671 -0.0012986016144 -0.0012347458659 -0.001094212395 -0.00084486531244 -0.00082410787248 -0.0011711103772 -0.0015806789956 
-0.0018836795147 -0.0019389424775 -0.001579893172 -0.0013019235877 -0.0011225660962 -0.00099507727634 -0.00091503680211 -0.00099529943728 -0.0011158337916 
-0.0013964218991 -0.0011724578354 -0.00096007249303 -0.00096895874847 -0.0010517842453 -0.0011266275824 -0.0011837718488 -0.0012446243135 -0.0011998586445 
-0.0011215628099 -0.0010313111237 -0.0010324033392 -0.001121460762 -0.0012185329076 -0.0012565575011 -0.0012878259802 -0.0013962918144 -0.0013353376723 
-0.00088626013379 -0.00092965567357 -0.0011199298067 -0.0011911877209 -0.0012931058121 -0.001330838986 -0.0013147292023 -0.0013189383752 -0.0012457216404 
-0.00116234406 -0.0011262539974 -0.0010935853352 -0.0011150012539 -0.0011728111767 -0.0011926172331 -0.0012132535162 -0.0012053059131 -0.001165019894 
-0.0011105558024 -0.00099582602635 -0.00094438483935 -0.0010830822846 -0.0012588089584 -0.0014026052526 -0.0015510066561 -0.001303103181 -0.0011467683027 
-0.0010131513615 -0.00097768340248 -0.0010350521961 -0.0010930937888 -0.0011552660592 -0.0011505198256 -0.00091939212312 -0.00083512075504 -0.00085346577135 
-0.0010124588359 -0.0010730591007 -0.0011274119487 -0.0011654680346 -0.0011682722853 -0.0010876189239 -0.00099814243806 -0.0010001998476 -0.0010779749694 
-0.0010519820513 -0.00094216926529 -0.00095307603343 -0.0010815576343 -0.0010055672904 -0.00064777133161 -0.00071828415446 -0.0010288914035 -0.0011101052765 
-0.0012215382812 -0.0012554186871 -0.001224235188 -0.0012329864448 -0.0012502128345 -0.0011986498222 -0.0011546051373 -0.0011004731746 -0.0010629409948 
-0.0011077024067 -0.0011258829462 -0.0011558222522 -0.001156422315 -0.0011233430924 -0.0010620754691 -0.00093523958434 -0.00088480512685 -0.0010089428333 
-0.0011175190793 -0.0011379287326 -0.0011599823354 -0.0011031640914 -0.00098900494873 -0.00091573870515 -0.00095116938016 -0.001093762849 -0.0012037234129 
-0.0012896989806 -0.0012397585901 -0.0010240014586 -0.0009170596406 -0.00091034020069 -0.00091439697026 -0.00094368426058 -0.001007797834 -0.0010467544394 
-0.0010987889692 -0.0010453038446 -0.00097401737478 -0.00096698416187 -0.00098173768349 -0.00080628981032 -0.00070556824077 -0.00070051564712 -0.00075847308762 
-0.0006821508282 -0.00064844225566 -0.00074325285423 -0.00093113450476 -0.00097858906733 -0.001086450768 -0.0011201814173 -0.0010879182391 -0.0010984616847 
-0.0011342393968 -0.0011107242475 -0.0011227713268 -0.0010671118815 -0.00097164191323 -0.0010153996156 -0.0010710091462 -0.0011192122013 -0.001146591562 
-0.001117590318 -0.0010216214987 -0.00084175128728 -0.00079119810767 -0.00088362925195 -0.00099506180065 -0.00097759381619 -0.00096594343183 -0.00097682654309 
-0.0009436090855 -0.00091233367698 -0.00099760976842 -0.0011619411857 -0.0013372354498 -0.001581043882 -0.0015885532567 -0.0012642044983 -0.001094049383 
-0.0010023552474 -0.00086273324667 -0.00083775464408 -0.00088212891719 -0.00094937762594 -0.0010071534039 -0.00096644306519 -0.00089894708656 -0.00085363663502 
-0.00087163953385 -0.00077206838513 -0.00069143450139 -0.00070342591088 -0.00078616812234 -0.00070456035413 -0.0010132378003 -0.0010589957591 -0.00098475907056 
-0.00094618297204 -0.00096440337334 -0.00096442534694 -0.00098347316191 -0.00099804459667 -0.0010336465185 -0.0010434319522 -0.0010706013694 -0.0010116927591 
-0.00090630711608 -0.00089879162553 -0.0010290564158 -0.0011252050087 -0.0011770970189 -0.0011501951975 -0.0010305692523 -0.0008267143063 -0.00077557678823 
-0.00082053963065 -0.00090188464949 -0.00086457591514 -0.00084855521641 -0.00086537518932 -0.00090163211215 -0.00090858339068 -0.0010089641851 -0.0012239848886 
-0.0015713853932 -0.0019685692969 -0.0020273216859 -0.0016198534049 -0.0012925888778 -0.0011122223067 -0.00094359041005 -0.00085111576335 -0.00087769032769 
-0.000973508038 -0.00098573793815 -0.00095093253619 -0.00088421601899 -0.00082946267659 -0.00084060788029 -0.00092049158564 -0.00098315505842 -0.0010190686824 
-0.001160663788 -0.0011140279072 -0.0017256339893 -0.0016751257156 -0.001265538072 -0.0010915709051 -0.0010359665921 -0.00099138613498 -0.00097576045994 
-0.00097881144671 -0.00094125970217 -0.00094114817443 -0.00099326315639 -0.00093213233669 -0.00081637919161 -0.000802934112 -0.00095213797775 -0.00112946521 
-0.0011996509181 -0.0011829451185 -0.0010409163144 -0.00088065136946 -0.0008691941239 -0.00095345808729 -0.00092708565964 -0.00084599396915 -0.00082061349907 
-0.00082838837438 -0.00082566627175 -0.00078126807812 -0.00088262704559 -0.0011233012678 -0.0015195328448 -0.0020043755618 -0.0022023288086 -0.0020179955274 
-0.0015612267069 -0.0012268905668 -0.0010076398797 -0.00091678734051 -0.0009544804827 -0.00097827193414 -0.00097438885076 -0.00095098599644 -0.00086601297776 
-0.00081654616358 -0.0008495383917 -0.00096699983655 -0.0014342777242 -0.0015579867887 -0.0017233700394 -0.001721445643 -0.0023972546461 -0.0022953325585 
-0.0019351696705 -0.0015318134776 -0.0013617205725 -0.001232398721 -0.0011718246404 -0.0010788070976 -0.0008951315478 -0.00087081192223 -0.00089286405183 
-0.00088875604702 -0.00082312689939 -0.0007998413514 -0.00086050941982 -0.0011023149186 -0.0011983907076 -0.0012031906206 -0.0011328372523 -0.0010166756863 
-0.0010156786917 -0.0010699971954 -0.0010336026709 -0.00093514189347 -0.00090180407157 -0.00086098094758 -0.00078708599015 -0.0007385899465 -0.00083653270809 
-0.0010325710565 -0.0012600518787 -0.0016308656755 -0.0020270139791 -0.0020046491466 -0.0017001833821 -0.0013798626124 -0.0011515688766 -0.0010340071564 
-0.00096445331194 -0.00094490568736 -0.00093623746649 -0.00093213638486 -0.00086567870809 -0.00084721591021 -0.00090203205877 -0.0010499828815 -0.0017155152901 
-0.00212520469 -0.0022859897906 -0.0023494022806 -0.0026284440421 -0.0026168890821 -0.0025086996371 -0.0022698453762 -0.001995781035 -0.0017910873156 
-0.0016988578583 -0.0013974577261 -0.00095810622741 -0.00088810341405 -0.00093051989496 -0.00097796725631 -0.0009358245457 -0.00089355675571 -0.00092560123909 
-0.0010633856119 -0.0011413320218 -0.0011977161685 -0.0012516063767 -0.0012330916907 -0.0011795226513 -0.0012266415706 -0.0011852246678 -0.001079966705 
-0.0010657900946 -0.00090834954382 -0.00083609602985 -0.0007525953813 -0.00079774047868 -0.00099503203608 -0.0011407914658 -0.0012970630828 -0.0015953574148 
-0.0015931019132 -0.0013457659283 -0.0011987847782 -0.0010376770778 -0.0009563879126 -0.00091161430328 -0.00089217724878 -0.00088365280583 -0.00086946991613 
-0.00088840797205 -0.0009002831162 -0.00094791307868 -0.0011088890645 -0.0018087148319 -0.0022989890037 -0.0025085744111 -0.0025911907791 -0.002479387895 
-0.0026804569184 -0.0027650818545 -0.0027119486641 -0.0025548635629 -0.002332747827 -0.0020412697201 -0.0016671300008 -0.0012005628817 -0.0010004786985 
-0.0010491431972 -0.0011007211043 -0.0010740824759 -0.0010284252207 -0.0010120043697 -0.00095972169087 -0.00094753121861 -0.001006796022 -0.0011675296057 
-0.0014059810709 -0.001525061114 -0.0015167389405 -0.0014818656916 -0.0014639146183 -0.0013170558398 -0.0010787895876 -0.001003013824 -0.00088796268651 
-0.00084599811831 -0.0009656802009 -0.001019914813 -0.0010939890084 -0.0012010551074 -0.0011626486237 -0.0011610256738 -0.0011038227998 -0.00096772582587 
-0.00085313387677 -0.00084314998491 -0.000867608616 -0.00086488051317 -0.00087172515597 -0.00089508784591 -0.00092265398772 -0.00097405382597 -0.0011519945113 
-0.0016996287542 -0.001992413729 -0.0021127270646 -0.002255468504 -0.0019124727344 -0.0024471517494 -0.0027544121367 -0.0028186198781 -0.0026929008632 
-0.002386153146 -0.0019039485953 -0.0015100386526 -0.00127977033 -0.0011659127987 -0.0011586624905 -0.0012262859113 -0.0012199481973 -0.0011693166211 
-0.00099858998702 -0.00089855576709 -0.00089322743068 -0.00093497671997 -0.00101637511 -0.0012692938092 -0.0017027340924 -0.0018774891613 -0.0018372993361 
-0.0016945336051 -0.0014609482494 -0.0012192406029 -0.0011363956632 -0.0010565333813 -0.00093323824167 -0.0008423071822 -0.00088471066644 -0.00092137191538 
-0.00095331507745 -0.00094752772242 -0.00099628827863 -0.00097705251208 -0.00084415230545 -0.00076239873497 -0.0007743618457 -0.00091342113429 -0.0009370790002 
-0.00095391528752 -0.00097833891604 -0.00099296798496 -0.0010478446666 -0.0012064547863 -0.0012865165648 -0.0011026028941 -0.0011783549536 -0.0014600484981 
-0.0012379624481 -0.0018804859196 -0.0024790825854 -0.0026614763112 -0.0024899557436 -0.0019382791337 -0.0014251159789 -0.0012526888893 -0.001148742363 
-0.0011957199369 -0.0014251222351 -0.0016293361637 -0.0016086740629 -0.001232211481 -0.0010015679952 -0.00088238089687 -0.00085737866601 -0.00089167324132 
-0.00095141914235 -0.0010886384523 -0.0014721349519 -0.0017619962985 -0.0016258972087 -0.0014370830482 -0.0013300223492 -0.0012395453761 -0.0011641690317 
-0.0010582793305 -0.00092909126555 -0.00082966450864 -0.00081768384388 -0.00083361053425 -0.00080134070587 -0.00079736255829 -0.0008403000379 -0.00088868340776 
-0.00081154914622 -0.00079183794377 -0.00083000510036 -0.0010868065535 -0.0013225403198 -0.0012712869703 -0.0012153391028 -0.001222279001 -0.001271537564 
-0.0011194131867 -0.00082161261378 -0.00071029937907 -0.00076240845563 -0.00093346507833 -0.00084004911103 -0.0012732596378 -0.0019963678856 -0.0022799643344 
-0.001915106133 -0.001280115783 -0.0010240643212 -0.00098559229676 -0.00097756530755 -0.0011114018583 -0.001415647158 -0.0018867788084 -0.001865936477 
-0.0013039175585 -0.0010615075977 -0.0008958126552 -0.00086771178508 -0.00089436727231 -0.00091722415462 -0.0010177389499 -0.0011804110101 -0.0013381548165 
-0.001214614212 -0.0012186421969 -0.0012042630738 -0.0011788281828 -0.0011633072767 -0.0010671706879 -0.0009402396494 -0.00084187185447 -0.00082769286194 
-0.00082981788191 -0.00075296504508 -0.00074298812734 -0.00079248044834 -0.00091739500069 -0.00097602239081 -0.00092909776679 -0.00099727663255 -0.0013665427025 
-0.0016849014875 -0.0017031510409 -0.0016251704936 -0.0015410693027 -0.0014085099693 -0.00097973140488 -0.00078831244692 -0.00065109306096 -0.00060263522877 
-0.00068741416288 -0.0006570023563 -0.00089627693308 -0.0015015073718 -0.001737183167 -0.0011993547876 -0.0008408537024 -0.00065944178947 -0.00073874937707 
-0.00083550176665 -0.0010978876536 -0.0014804339618 -0.0020524131226 -0.0021121907381 -0.0014680347399 -0.0010949188823 -0.00087963640002 -0.00082468698492 
-0.00087794055949 -0.00091592863935 -0.0010030698513 -0.0010996019258 -0.0010854659144 -0.0010282253078 -0.0010606296121 -0.0010966989714 -0.001117966436 
-0.0011334483528 -0.0011017701663 -0.00098746785549 -0.00092217896547 -0.00093829986423 -0.00092962744357 -0.00084102142981 -0.00080989559676 -0.00087630917305 
-0.001006160159 -0.001088005756 -0.0010900938155 -0.0012103955426 -0.0016284951089 -0.0017497083286 -0.0016895704257 -0.0015853188454 -0.0014748400378 
-0.0014005605128 -0.0010636191196 -0.00094740292578 -0.0008076554931 -0.00073563234824 -0.00063301781041 -0.00066921925176 -0.00082356268466 -0.0013514287908 
-0.0013596020489 -0.00099279852721 -0.00066930666039 -0.00043557146985 -0.00043164234433 -0.0007086135834 -0.0011298042977 -0.0016733899851 -0.0023330302684 
-0.0024252040357 -0.0018683268553 -0.001135027649 -0.00085941728719 -0.00080844131634 -0.00088635480851 -0.00099376288943 -0.0011360787506 -0.0012531148397 
-0.0011030184613 -0.00098664292425 -0.0010007924958 -0.0010761327174 -0.0011117906671 -0.0011382859095 -0.0011360507785 -0.0010433094877 -0.00098946530822 
-0.00099623761436 -0.0010019059233 -0.00097493263672 -0.00091411570532 -0.00096269542903 -0.0011013599957 -0.0011871504717 -0.0012282155939 -0.0014750736909 
-0.0016549851229 -0.0016076646726 -0.0014742861819 -0.001341939697 -0.0012573941826 -0.0012927465061 -0.001205609454 -0.0011113537765 -0.0010290399684 
-0.00093694815087 -0.00072826453141 -0.00087580973007 -0.0012363309079 -0.0014894646541 -0.0013567534815 -0.0011111391688 -0.00082223773191 -0.00057464243381 
-0.00055531727076 -0.00078888488033 -0.0013049717019 -0.0021093136256 -0.00267172896 -0.0026847609045 -0.0022725424912 -0.0014515798949 -0.0009199733812 
-0.00088792326023 -0.0010371678897 -0.001269076095 -0.0017256763623 -0.001690370763 -0.0012876617506 -0.0010663772194 -0.0010170082903 -0.00104914771 
-0.0011054557991 -0.0011358216059 -0.0011089554285 -0.0010018782469 -0.00098403668801 -0.00099927061937 -0.0010067890731 -0.00099291858351 -0.0010017451504 
-0.0010615316083 -0.0011799635797 -0.0012862194018 -0.0014102681932 -0.001530739987 -0.001516249479 -0.0014004390055 -0.0011826565733 -0.0010371056282 