# vtk DataFile Version 4.2
vtk output
ASCII
DATASET UNSTRUCTURED_GRID
POINTS 2601 double
0 0 0 1 0 0 2 0 0 
3 0 0 4 0 0 5 0 0 
6 0 0 7 0 0 8 0 0 
9 0 0 10 0 0 11 0 0 
12 0 0 13 0 0 14 0 0 
15 0 0 16 0 0 17 0 0 
18 0 0 19 0 0 20 0 0 
21 0 0 22 0 0 23 0 0 
24 0 0 25 0 0 26 0 0 
27 0 0 28 0 0 29 0 0 
30 0 0 31 0 0 32 0 0 
33 0 0 34 0 0 35 0 0 
36 0 0 37 0 0 38 0 0 
39 0 0 40 0 0 41 0 0 
42 0 0 43 0 0 44 0 0 
45 0 0 46 0 0 47 0 0 
48 0 0 49 0 0 50 0 0 
0 1 0 1 1 0 2 1 0 
3 1 0 4 1 0 5 1 0 
6 1 0 7 1 0 8 1 0 
9 1 0 10 1 0 11 1 0 
12 1 0 13 1 0 14 1 0 
15 1 0 16 1 0 17 1 0 
18 1 0 19 1 0 20 1 0 
21 1 0 22 1 0 23 1 0 
24 1 0 25 1 0 26 1 0 
27 1 0 28 1 0 29 1 0 
30 1 0 31 1 0 32 1 0 
33 1 0 34 1 0 35 1 0 
36 1 0 37 1 0 38 1 0 
39 1 0 40 1 0 41 1 0 
42 1 0 43 1 0 44 1 0 
45 1 0 46 1 0 47 1 0 
48 1 0 49 1 0 50 1 0 
0 2 0 1 2 0 2 2 0 
3 2 0 4 2 0 5 2 0 
6 2 0 7 2 0 8 2 0 
9 2 0 10 2 0 11 2 0 
12 2 0 13 2 0 14 2 0 
15 2 0 16 2 0 17 2 0 
18 2 0 19 2 0 20 2 0 
21 2 0 22 2 0 23 2 0 
24 2 0 25 2 0 26 2 0 
27 2 0 28 2 0 29 2 0 
30 2 0 31 2 0 32 2 0 
33 2 0 34 2 0 35 2 0 
36 2 0 37 2 0 38 2 0 
39 2 0 40 2 0 41 2 0 
42 2 0 43 2 0 44 2 0 
45 2 0 46 2 0 47 2 0 
48 2 0 49 2 0 50 2 0 
0 3 0 1 3 0 2 3 0 
3 3 0 4 3 0 5 3 0 
6 3 0 7 3 0 8 3 0 
9 3 0 10 3 0 11 3 0 
12 3 0 13 3 0 14 3 0 
15 3 0 16 3 0 17 3 0 
18 3 0 19 3 0 20 3 0 
21 3 0 22 3 0 23 3 0 
24 3 0 25 3 0 26 3 0 
27 3 0 28 3 0 29 3 0 
30 3 0 31 3 0 32 3 0 
33 3 0 34 3 0 35 3 0 
36 3 0 37 3 0 38 3 0 
39 3 0 40 3 0 41 3 0 
42 3 0 43 3 0 44 3 0 
45 3 0 46 3 0 47 3 0 
48 3 0 49 3 0 50 3 0 
0 4 0 1 4 0 2 4 0 
3 4 0 4 4 0 5 4 0 
6 4 0 7 4 0 8 4 0 
9 4 0 10 4 0 11 4 0 
12 4 0 13 4 0 14 4 0 
15 4 0 16 4 0 17 4 0 
18 4 0 19 4 0 20 4 0 
21 4 0 22 4 0 23 4 0 
24 4 0 25 4 0 26 4 0 
27 4 0 28 4 0 29 4 0 
30 4 0 31 4 0 32 4 0 
33 4 0 34 4 0 35 4 0 
36 4 0 37 4 0 38 4 0 
39 4 0 40 4 0 41 4 0 
42 4 0 43 4 0 44 4 0 
45 4 0 46 4 0 47 4 0 
48 4 0 49 4 0 50 4 0 
0 5 0 1 5 0 2 5 0 
3 5 0 4 5 0 5 5 0 
6 5 0 7 5 0 8 5 0 
9 5 0 10 5 0 11 5 0 
12 5 0 13 5 0 14 5 0 
15 5 0 16 5 0 17 5 0 
18 5 0 19 5 0 20 5 0 
21 5 0 22 5 0 23 5 0 
24 5 0 25 5 0 26 5 0 
27 5 0 28 5 0 29 5 0 
30 5 0 31 5 0 32 5 0 
33 5 0 34 5 0 35 5 0 
36 5 0 37 5 0 38 5 0 
39 5 0 40 5 0 41 5 0 
42 5 0 43 5 0 44 5 0 
45 5 0 46 5 0 47 5 0 
48 5 0 49 5 0 50 5 0 
0 6 0 1 6 0 2 6 0 
3 6 0 4 6 0 5 6 0 
6 6 0 7 6 0 8 6 0 
9 6 0 10 6 0 11 6 0 
12 6 0 13 6 0 14 6 0 
15 6 0 16 6 0 17 6 0 
18 6 0 19 6 0 20 6 0 
21 6 0 22 6 0 23 6 0 
24 6 0 25 6 0 26 6 0 
27 6 0 28 6 0 29 6 0 
30 6 0 31 6 0 32 6 0 
33 6 0 34 6 0 35 6 0 
36 6 0 37 6 0 38 6 0 
39 6 0 40 6 0 41 6 0 
42 6 0 43 6 0 44 6 0 
45 6 0 46 6 0 47 6 0 
48 6 0 49 6 0 50 6 0 
0 7 0 1 7 0 2 7 0 
3 7 0 4 7 0 5 7 0 
6 7 0 7 7 0 8 7 0 
9 7 0 10 7 0 11 7 0 
12 7 0 13 7 0 14 7 0 
15 7 0 16 7 0 17 7 0 
18 7 0 19 7 0 20 7 0 
21 7 0 22 7 0 23 7 0 
24 7 0 25 7 0 26 7 0 
27 7 0 28 7 0 29 7 0 
30 7 0 31 7 0 32 7 0 
33 7 0 34 7 0 35 7 0 
36 7 0 37 7 0 38 7 0 
39 7 0 40 7 0 41 7 0 
42 7 0 43 7 0 44 7 0 
45 7 0 46 7 0 47 7 0 
48 7 0 49 7 0 50 7 0 
0 8 0 1 8 0 2 8 0 
3 8 0 4 8 0 5 8 0 
6 8 0 7 8 0 8 8 0 
9 8 0 10 8 0 11 8 0 
12 8 0 13 8 0 14 8 0 
15 8 0 16 8 0 17 8 0 
18 8 0 19 8 0 20 8 0 
21 8 0 22 8 0 23 8 0 
24 8 0 25 8 0 26 8 0 
27 8 0 28 8 0 29 8 0 
30 8 0 31 8 0 32 8 0 
33 8 0 34 8 0 35 8 0 
36 8 0 37 8 0 38 8 0 
39 8 0 40 8 0 41 8 0 
42 8 0 43 8 0 44 8 0 
45 8 0 46 8 0 47 8 0 
48 8 0 49 8 0 50 8 0 
0 9 0 1 9 0 2 9 0 
3 9 0 4 9 0 5 9 0 
6 9 0 7 9 0 8 9 0 
9 9 0 10 9 0 11 9 0 
12 9 0 13 9 0 14 9 0 
15 9 0 16 9 0 17 9 0 
18 9 0 19 9 0 20 9 0 
21 9 0 22 9 0 23 9 0 
24 9 0 25 9 0 26 9 0 
27 9 0 28 9 0 29 9 0 
30 9 0 31 9 0 32 9 0 
33 9 0 34 9 0 35 9 0 
36 9 0 37 9 0 38 9 0 
39 9 0 40 9 0 41 9 0 
42 9 0 43 9 0 44 9 0 
45 9 0 46 9 0 47 9 0 
48 9 0 49 9 0 50 9 0 
0 10 0 1 10 0 2 10 0 
3 10 0 4 10 0 5 10 0 
6 10 0 7 10 0 8 10 0 
9 10 0 10 10 0 11 10 0 
12 10 0 13 10 0 14 10 0 
15 10 0 16 10 0 17 10 0 
18 10 0 19 10 0 20 10 0 
21 10 0 22 10 0 23 10 0 
24 10 0 25 10 0 26 10 0 
27 10 0 28 10 0 29 10 0 
30 10 0 31 10 0 32 10 0 
33 10 0 34 10 0 35 10 0 
36 10 0 37 10 0 38 10 0 
39 10 0 40 10 0 41 10 0 
42 10 0 43 10 0 44 10 0 
45 10 0 46 10 0 47 10 0 
48 10 0 49 10 0 50 10 0 
0 11 0 1 11 0 2 11 0 
3 11 0 4 11 0 5 11 0 
6 11 0 7 11 0 8 11 0 
9 11 0 10 11 0 11 11 0 
12 11 0 13 11 0 14 11 0 
15 11 0 16 11 0 17 11 0 
18 11 0 19 11 0 20 11 0 
21 11 0 22 11 0 23 11 0 
24 11 0 25 11 0 26 11 0 
27 11 0 28 11 0 29 11 0 
30 11 0 31 11 0 32 11 0 
33 11 0 34 11 0 35 11 0 
36 11 0 37 11 0 38 11 0 
39 11 0 40 11 0 41 11 0 
42 11 0 43 11 0 44 11 0 
45 11 0 46 11 0 47 11 0 
48 11 0 49 11 0 50 11 0 
0 12 0 1 12 0 2 12 0 
3 12 0 4 12 0 5 12 0 
6 12 0 7 12 0 8 12 0 
9 12 0 10 12 0 11 12 0 
12 12 0 13 12 0 14 12 0 
15 12 0 16 12 0 17 12 0 
18 12 0 19 12 0 20 12 0 
21 12 0 22 12 0 23 12 0 
24 12 0 25 12 0 26 12 0 
27 12 0 28 12 0 29 12 0 
30 12 0 31 12 0 32 12 0 
33 12 0 34 12 0 35 12 0 
36 12 0 37 12 0 38 12 0 
39 12 0 40 12 0 41 12 0 
42 12 0 43 12 0 44 12 0 
45 12 0 46 12 0 47 12 0 
48 12 0 49 12 0 50 12 0 
0 13 0 1 13 0 2 13 0 
3 13 0 4 13 0 5 13 0 
6 13 0 7 13 0 8 13 0 
9 13 0 10 13 0 11 13 0 
12 13 0 13 13 0 14 13 0 
15 13 0 16 13 0 17 13 0 
18 13 0 19 13 0 20 13 0 
21 13 0 22 13 0 23 13 0 
24 13 0 25 13 0 26 13 0 
27 13 0 28 13 0 29 13 0 
30 13 0 31 13 0 32 13 0 
33 13 0 34 13 0 35 13 0 
36 13 0 37 13 0 38 13 0 
39 13 0 40 13 0 41 13 0 
42 13 0 43 13 0 44 13 0 
45 13 0 46 13 0 47 13 0 
48 13 0 49 13 0 50 13 0 
0 14 0 1 14 0 2 14 0 
3 14 0 4 14 0 5 14 0 
6 14 0 7 14 0 8 14 0 
9 14 0 10 14 0 11 14 0 
12 14 0 13 14 0 14 14 0 
15 14 0 16 14 0 17 14 0 
18 14 0 19 14 0 20 14 0 
21 14 0 22 14 0 23 14 0 
24 14 0 25 14 0 26 14 0 
27 14 0 28 14 0 29 14 0 
30 14 0 31 14 0 32 14 0 
33 14 0 34 14 0 35 14 0 
36 14 0 37 14 0 38 14 0 
39 14 0 40 14 0 41 14 0 
42 14 0 43 14 0 44 14 0 
45 14 0 46 14 0 47 14 0 
48 14 0 49 14 0 50 14 0 
0 15 0 1 15 0 2 15 0 
3 15 0 4 15 0 5 15 0 
6 15 0 7 15 0 8 15 0 
9 15 0 10 15 0 11 15 0 
12 15 0 13 15 0 14 15 0 
15 15 0 16 15 0 17 15 0 
18 15 0 19 15 0 20 15 0 
21 15 0 22 15 0 23 15 0 
24 15 0 25 15 0 26 15 0 
27 15 0 28 15 0 29 15 0 
30 15 0 31 15 0 32 15 0 
33 15 0 34 15 0 35 15 0 
36 15 0 37 15 0 38 15 0 
39 15 0 40 15 0 41 15 0 
42 15 0 43 15 0 44 15 0 
45 15 0 46 15 0 47 15 0 
48 15 0 49 15 0 50 15 0 
0 16 0 1 16 0 2 16 0 
3 16 0 4 16 0 5 16 0 
6 16 0 7 16 0 8 16 0 
9 16 0 10 16 0 11 16 0 
12 16 0 13 16 0 14 16 0 
15 16 0 16 16 0 17 16 0 
18 16 0 19 16 0 20 16 0 
21 16 0 22 16 0 23 16 0 
24 16 0 25 16 0 26 16 0 
27 16 0 28 16 0 29 16 0 
30 16 0 31 16 0 32 16 0 
33 16 0 34 16 0 35 16 0 
36 16 0 37 16 0 38 16 0 
39 16 0 40 16 0 41 16 0 
42 16 0 43 16 0 44 16 0 
45 16 0 46 16 0 47 16 0 
48 16 0 49 16 0 50 16 0 
0 17 0 1 17 0 2 17 0 
3 17 0 4 17 0 5 17 0 
6 17 0 7 17 0 8 17 0 
9 17 0 10 17 0 11 17 0 
12 17 0 13 17 0 14 17 0 
15 17 0 16 17 0 17 17 0 
18 17 0 19 17 0 20 17 0 
21 17 0 22 17 0 23 17 0 
24 17 0 25 17 0 26 17 0 
27 17 0 28 17 0 29 17 0 
30 17 0 31 17 0 32 17 0 
33 17 0 34 17 0 35 17 0 
36 17 0 37 17 0 38 17 0 
39 17 0 40 17 0 41 17 0 
42 17 0 43 17 0 44 17 0 
45 17 0 46 17 0 47 17 0 
48 17 0 49 17 0 50 17 0 
0 18 0 1 18 0 2 18 0 
3 18 0 4 18 0 5 18 0 
6 18 0 7 18 0 8 18 0 
9 18 0 10 18 0 11 18 0 
12 18 0 13 18 0 14 18 0 
15 18 0 16 18 0 17 18 0 
18 18 0 19 18 0 20 18 0 
21 18 0 22 18 0 23 18 0 
24 18 0 25 18 0 26 18 0 
27 18 0 28 18 0 29 18 0 
30 18 0 31 18 0 32 18 0 
33 18 0 34 18 0 35 18 0 
36 18 0 37 18 0 38 18 0 
39 18 0 40 18 0 41 18 0 
42 18 0 43 18 0 44 18 0 
45 18 0 46 18 0 47 18 0 
48 18 0 49 18 0 50 18 0 
0 19 0 1 19 0 2 19 0 
3 19 0 4 19 0 5 19 0 
6 19 0 7 19 0 8 19 0 
9 19 0 10 19 0 11 19 0 
12 19 0 13 19 0 14 19 0 
15 19 0 16 19 0 17 19 0 
18 19 0 19 19 0 20 19 0 
21 19 0 22 19 0 23 19 0 
24 19 0 25 19 0 26 19 0 
27 19 0 28 19 0 29 19 0 
30 19 0 31 19 0 32 19 0 
33 19 0 34 19 0 35 19 0 
36 19 0 37 19 0 38 19 0 
39 19 0 40 19 0 41 19 0 
42 19 0 43 19 0 44 19 0 
45 19 0 46 19 0 47 19 0 
48 19 0 49 19 0 50 19 0 
0 20 0 1 20 0 2 20 0 
3 20 0 4 20 0 5 20 0 
6 20 0 7 20 0 8 20 0 
9 20 0 10 20 0 11 20 0 
12 20 0 13 20 0 14 20 0 
15 20 0 16 20 0 17 20 0 
18 20 0 19 20 0 20 20 0 
21 20 0 22 20 0 23 20 0 
24 20 0 25 20 0 26 20 0 
27 20 0 28 20 0 29 20 0 
30 20 0 31 20 0 32 20 0 
33 20 0 34 20 0 35 20 0 
36 20 0 37 20 0 38 20 0 
39 20 0 40 20 0 41 20 0 
42 20 0 43 20 0 44 20 0 
45 20 0 46 20 0 47 20 0 
48 20 0 49 20 0 50 20 0 
0 21 0 1 21 0 2 21 0 
3 21 0 4 21 0 5 21 0 
6 21 0 7 21 0 8 21 0 
9 21 0 10 21 0 11 21 0 
12 21 0 13 21 0 14 21 0 
15 21 0 16 21 0 17 21 0 
18 21 0 19 21 0 20 21 0 
21 21 0 22 21 0 23 21 0 
24 21 0 25 21 0 26 21 0 
27 21 0 28 21 0 29 21 0 
30 21 0 31 21 0 32 21 0 
33 21 0 34 21 0 35 21 0 
36 21 0 37 21 0 38 21 0 
39 21 0 40 21 0 41 21 0 
42 21 0 43 21 0 44 21 0 
45 21 0 46 21 0 47 21 0 
48 21 0 49 21 0 50 21 0 
0 22 0 1 22 0 2 22 0 
3 22 0 4 22 0 5 22 0 
6 22 0 7 22 0 8 22 0 
9 22 0 10 22 0 11 22 0 
12 22 0 13 22 0 14 22 0 
15 22 0 16 22 0 17 22 0 
18 22 0 19 22 0 20 22 0 
21 22 0 22 22 0 23 22 0 
24 22 0 25 22 0 26 22 0 
27 22 0 28 22 0 29 22 0 
30 22 0 31 22 0 32 22 0 
33 22 0 34 22 0 35 22 0 
36 22 0 37 22 0 38 22 0 
39 22 0 40 22 0 41 22 0 
42 22 0 43 22 0 44 22 0 
45 22 0 46 22 0 47 22 0 
48 22 0 49 22 0 50 22 0 
0 23 0 1 23 0 2 23 0 
3 23 0 4 23 0 5 23 0 
6 23 0 7 23 0 8 23 0 
9 23 0 10 23 0 11 23 0 
12 23 0 13 23 0 14 23 0 
15 23 0 16 23 0 17 23 0 
18 23 0 19 23 0 20 23 0 
21 23 0 22 23 0 23 23 0 
24 23 0 25 23 0 26 23 0 
27 23 0 28 23 0 29 23 0 
30 23 0 31 23 0 32 23 0 
33 23 0 34 23 0 35 23 0 
36 23 0 37 23 0 38 23 0 
39 23 0 40 23 0 41 23 0 
42 23 0 43 23 0 44 23 0 
45 23 0 46 23 0 47 23 0 
48 23 0 49 23 0 50 23 0 
0 24 0 1 24 0 2 24 0 
3 24 0 4 24 0 5 24 0 
6 24 0 7 24 0 8 24 0 
9 24 0 10 24 0 11 24 0 
12 24 0 13 24 0 14 24 0 
15 24 0 16 24 0 17 24 0 
18 24 0 19 24 0 20 24 0 
21 24 0 22 24 0 23 24 0 
24 24 0 25 24 0 26 24 0 
27 24 0 28 24 0 29 24 0 
30 24 0 31 24 0 32 24 0 
33 24 0 34 24 0 35 24 0 
36 24 0 37 24 0 38 24 0 
39 24 0 40 24 0 41 24 0 
42 24 0 43 24 0 44 24 0 
45 24 0 46 24 0 47 24 0 
48 24 0 49 24 0 50 24 0 
0 25 0 1 25 0 2 25 0 
3 25 0 4 25 0 5 25 0 
[...]
CELL_DATA 2500
SCALARS $\mu_{AB} double
LOOKUP_TABLE default
-0.00093825172008 -0.00061562838339 -0.00059007924221 -0.00087174755739 -0.0012527417062 -0.0016515569004 -0.0017682417195 -0.0016818722481 -0.0015446077625 
-0.0015154159399 -0.0016074086291 -0.0016679602544 -0.0015179394506 -0.00077466246136 -0.00063546639713 -0.00072434505901 -0.00083890827708 -0.00068689020511 
-0.00054859283737 -0.00057392690779 -0.00087927772249 -0.0010328504825 -0.0010860695108 -0.0010856418064 -0.0010189455467 -0.00093892283683 -0.00096022073372 
-0.0010532948747 -0.0010494303826 -0.0010217641241 -0.0010131433001 -0.0010591595454 -0.00096632456649 -0.00086463335691 -0.00083501950931 -0.00089060019728 
-0.00089084582938 -0.00090732324738 -0.00092271096052 -0.00093896153777 -0.0010274397486 -0.0013489873108 -0.0015581233734 -0.0015474007131 -0.0014332728197 
-0.0013201147852 -0.0012054779024 -0.0010921372535 -0.0010771550455 -0.001077914886 -0.0011826621132 -0.00099820226369 -0.00093066466346 -0.001057103719 
-0.0013457829611 -0.0017201192767 -0.001850449937 -0.0017681321162 -0.0016314666203 -0.0015700272326 -0.0016082010599 -0.0016556614456 -0.0015720173043 
-0.0011055329623 -0.00088807488084 -0.00098330014262 -0.0010743177593 -0.00099302206056 -0.00085287057865 -0.00081839297206 -0.00082127855116 -0.00096077929911 
-0.0010840725501 -0.001108482509 -0.0010592626 -0.0010234318836 -0.0010685184386 -0.0010676824803 -0.0010314555653 -0.00099360664417 -0.00097836449602 
-0.0010108160554 -0.0010177210762 -0.00098404277026 -0.00092373466332 -0.00090182351445 -0.00087487070886 -0.00086596004583 -0.00086644744039 -0.00087951929739 
-0.00093149066813 -0.0010883183255 -0.0014299925495 -0.001426331172 -0.0013200921892 -0.001214401411 -0.0011493387811 -0.0011108312642 -0.0011704449348 
-0.0012082957271 -0.0012506645292 -0.0010035084681 -0.00094343590336 -0.0010165832092 -0.0011589111338 -0.001409071569 -0.0017458354338 -0.0017624375441 
-0.0016393861003 -0.0015492568269 -0.0015426169247 -0.0015498077158 -0.0015454828255 -0.0014624114511 -0.001316679209 -0.0013459232199 -0.001476505384 
-0.0014327782322 -0.0013245149694 -0.00092025772493 -0.00058181877292 -0.00061212732553 -0.00093965813905 -0.0011320802569 -0.0011812975298 -0.0011543098088 
-0.0011147314516 -0.0010881201549 -0.0010453903894 -0.00098932556198 -0.00098782653361 -0.0010504927342 -0.0010982107129 -0.0011781807048 -0.0010117175533 
-0.00095048654331 -0.00089926834033 -0.00088651352747 -0.00087724615084 -0.00088369604409 -0.00092583943222 -0.0009921583259 -0.0012419586625 -0.0012503965612 
-0.0011539318126 -0.0010821595227 -0.0010703868304 -0.0011959488925 -0.0012949255331 -0.001343659057 -0.0011249580593 -0.00098493568506 -0.00093444929932 
-0.00098165893202 -0.0010721317496 -0.0011765362617 -0.0013900244547 -0.0015787306249 -0.001468088847 -0.0012982272363 -0.0012136664886 -0.0011628563707 
-0.0013228637261 -0.0016143791988 -0.0018471048653 -0.001959963228 -0.0020561998174 -0.0019455591824 -0.0014671526545 -0.0008831970732 -0.00052031590146 
-0.0005214830273 -0.0008487729764 -0.0011728683833 -0.0013263439257 -0.0012468661533 -0.0011304482491 -0.001077224514 -0.001011183426 -0.00096027452602 
-0.001010211708 -0.001112353579 -0.0012128624592 -0.001408714449 -0.0011565632239 -0.0010033592633 -0.00092932278787 -0.00090700947667 -0.00090314090912 
-0.00091042839047 -0.00094159381156 -0.00098951141531 -0.0010890104226 -0.0011017568079 -0.0010871392845 -0.0010583584822 -0.0011274096536 -0.001278809122 
-0.0014044086747 -0.0014200697832 -0.0011354734673 -0.0010318274842 -0.00096423125275 -0.00098567993309 -0.0010232284581 -0.001069606342 -0.0011248399584 
-0.001188551868 -0.0010708231124 -0.0010310308531 -0.0010135462182 -0.0010086563289 -0.0010921240968 -0.0014893664517 -0.0020262649337 -0.0023142739701 
-0.0023465566398 -0.0020300619673 -0.0014614224455 -0.00085041312009 -0.00047818582439 -0.00060441861466 -0.00097084572654 -0.0012843649102 -0.0014714690627 
-0.0014019913709 -0.001127271646 -0.0010293358539 -0.00093220961608 -0.00090703130654 -0.00099414771432 -0.0011464775445 -0.0013949199017 -0.0017205585926 
-0.0014920759162 -0.0010673262628 -0.00094489806381 -0.00090497326038 -0.00090539812852 -0.00092825670127 -0.00097261093481 -0.0010666364641 -0.0010510044219 
-0.0010447173754 -0.0010811224461 -0.0011022318067 -0.0011889786833 -0.0013750826565 -0.0015194071294 -0.0014081336582 -0.0011665687977 -0.0010732379611 
-0.0010269896497 -0.00097198718501 -0.00096052442742 -0.00099037565101 -0.0010070974827 -0.00099554508442 -0.00096732127404 -0.00094624629286 -0.00094378114498 
-0.0009565482061 -0.0010293565635 -0.001231223998 -0.0018934463618 -0.0022429593329 -0.0022234434053 -0.0018425685843 -0.0012723549027 -0.00070605945714 
-0.00049603799591 -0.00088577001968 -0.0012842478794 -0.0015815567812 -0.0017044194514 -0.001631133428 -0.0012680166178 -0.0010149194696 -0.00090038782917 
-0.00087982960579 -0.00097706328277 -0.0012151322397 -0.0017281663689 -0.0019619101047 -0.0017815892284 -0.0013066126422 -0.00099084234782 -0.00092365693633 
-0.00092644237488 -0.00097273202074 -0.0011025186445 -0.0011136095299 -0.0010648674075 -0.0010546465004 -0.0011028422818 -0.0011686768162 -0.0013192931475 
-0.0015388505761 -0.0016312213356 -0.0014190740619 -0.0011691734869 -0.0010784134685 -0.0010230055274 -0.00097592403506 -0.00095099094003 -0.00096248614829 
-0.00099174849166 -0.00099401843943 -0.0009846500516 -0.00097810031778 -0.00098860830152 -0.00097543396193 -0.0010204592452 -0.0011375237688 -0.0016557884373 
-0.0019784547336 -0.0019544298213 -0.0015075551375 -0.00090251385585 -0.00047113098147 -0.00047467081469 -0.00091269470066 -0.001388286113 -0.0017040508061 
-0.001830520858 -0.0017187969924 -0.0013592728055 -0.0010873472881 -0.00094386873311 -0.00089944747034 -0.00099878598472 -0.0013719682892 -0.0018072592539 
-0.0019215112315 -0.0016909197939 -0.001311382587 -0.0010963467681 -0.0010040729047 -0.0010079984439 -0.0011324123736 -0.0011938065107 -0.0011748399708 
-0.0011180761625 -0.0011024894287 -0.0011605854482 -0.0012293952824 -0.0013278418275 -0.0015239328283 -0.0015826754072 -0.0014362595222 -0.0012129224794 
-0.0010856398495 -0.0010352800367 -0.0010049823905 -0.00098828017317 -0.0010177863072 -0.0010785952379 -0.001052498404 -0.0010377445945 -0.001044343792 
-0.0010432910584 -0.0010173607166 -0.0010287521133 -0.0011075555905 -0.0014406698369 -0.0016097399908 -0.0015894765424 -0.0013708876751 -0.0008618859517 
-0.00047041469885 -0.00056678704304 -0.00096912902002 -0.0014064187961 -0.0017112092943 -0.0018019051247 -0.0015785431054 -0.0012415700373 -0.0010969381891 
-0.00098522493572 -0.00093441969239 -0.00098527382172 -0.001154497324 -0.00154484804 -0.0015339531677 -0.0011680464793 -0.0010623949723 -0.0010664729286 
-0.0010852474982 -0.0011136575426 -0.0011906004731 -0.00120828727 -0.0011802879936 -0.0011246839714 -0.0011140059613 -0.0011678332949 -0.0012269033275 
-0.0012805558697 -0.0013573020444 -0.0014431796015 -0.0013730117872 -0.0011145176664 -0.0010639397135 -0.0010488653621 -0.0010566047231 -0.0011359324119 
-0.0012101108338 -0.0011982640766 -0.0011384557076 -0.0010861861143 -0.0010868180026 -0.0010788228865 -0.0010533550057 -0.0010521252834 -0.0011327562776 
-0.0012533337508 -0.0012805430335 -0.0012734082558 -0.0012066520835 -0.0010157867815 -0.00068177408279 -0.000675156264 -0.0010184934253 -0.001379844473 
-0.0015925696411 -0.0016124550832 -0.0013484295741 -0.0011988004132 -0.0011036082352 -0.0010204007457 -0.00097160568983 -0.0010244071061 -0.0010759866978 
-0.0011893775464 -0.0010453394212 -0.00096077039018 -0.00098466423114 -0.0010389399475 -0.0010770846515 -0.0010982799009 -0.0011443606842 -0.0011577013082 
-0.0011285277319 -0.0010733024217 -0.0010674480549 -0.0011143622967 -0.0011508861808 -0.0011534278318 -0.0012148316065 -0.001326049575 -0.0012715217763 
-0.0008678876652 -0.00087011174755 -0.0010231277322 -0.0011239898217 -0.0012275218837 -0.0012660513122 -0.0012365867756 -0.0011980039722 -0.001138674745 
-0.0011042599868 -0.0010887145891 -0.0010641129363 -0.0010734843947 -0.0011386899721 -0.001177294866 -0.0012087574358 -0.0012092066924 -0.0011720939755 
-0.001103974984 -0.00094264631585 -0.00089055083159 -0.0010105196646 -0.0011379889488 -0.0012216102683 -0.0013171652478 -0.0011768982179 -0.0011087636205 
-0.0010425798891 -0.0010208634714 -0.0010636905821 -0.0010948101837 -0.0011133624304 -0.0010631888499 -0.00093552197511 -0.0009036093763 -0.00092558120917 
-0.0010193123472 -0.0010410351286 -0.0010581288052 -0.0010777790513 -0.0011071780084 -0.0010926035208 -0.0010394465904 -0.0010324687731 -0.0010658122007 
-0.00098857899919 -0.00091087956123 -0.00096740026553 -0.0011061765405 -0.0010390189908 -0.00069225669812 -0.00072070682119 -0.0009869319551 -0.0010834497392 
-0.0011972862991 -0.0012355825939 -0.0012000857412 -0.0011803179351 -0.0011452512455 -0.0011072950704 -0.0010835913967 -0.0010474968664 -0.0010319647013 
-0.0010988233543 -0.0011267757471 -0.0011651608175 -0.0011730215594 -0.0011393966929 -0.0010690506005 -0.00092852804725 -0.00087700455412 -0.0009782370848 
-0.0010614130673 -0.0010701859947 -0.0010709919714 -0.0010457783167 -0.0010058649299 -0.00097348103932 -0.00099866502555 -0.0010904693414 -0.001151341765 
-0.0011779652542 -0.0010985906133 -0.00099526997367 -0.00095681934611 -0.00096255108878 -0.00094874387803 -0.00095562814092 -0.00097856228428 -0.00099484393735 
-0.0010291972033 -0.0010199549966 -0.00099188697278 -0.00098049209641 -0.00094721573028 -0.00076779280965 -0.00071676979451 -0.00076385569792 -0.00085728517655 
-0.00080008967478 -0.00072190173395 -0.0007578533729 -0.00090566567502 -0.00096764969155 -0.0010858848129 -0.0011318144596 -0.0010899901497 -0.0010845076657 
-0.001075268101 -0.001049897143 -0.0010585676604 -0.0010198716239 -0.00095752685219 -0.0010167848191 -0.0010791137874 -0.0011318990993 -0.0011552761226 
-0.0011247544772 -0.0010217549843 -0.00084860351113 -0.00080665355094 -0.00088912797551 -0.00098438087242 -0.00096944610411 -0.00095052949228 -0.00095405615909 
-0.00095858859568 -0.00095257542556 -0.0010051186852 -0.0011042882753 -0.0011984291464 -0.0013066930039 -0.0012784456853 -0.0011207355255 -0.0010568164508 
-0.0010174956709 -0.00092167955083 -0.0008903868402 -0.00090329706988 -0.00093137831894 -0.00096455935761 -0.00094029390639 -0.00089556982366 -0.00086084952731 
-0.00084747979693 -0.00074571903842 -0.00071641769361 -0.00077853005679 -0.0009211033556 -0.00085412603849 -0.0010067835051 -0.0010008292128 -0.00094853071531 
-0.00092916175235 -0.00095428683982 -0.00096632658332 -0.00098364455712 -0.00098936638611 -0.0010028327571 -0.0010105617289 -0.0010276168578 -0.00098382173112 
-0.0009086833417 -0.00091141668088 -0.0010392625103 -0.0011323710044 -0.0011748147317 -0.0011427492337 -0.0010171776345 -0.00082941691184 -0.00079069561212 
-0.0008345492372 -0.00092129301268 -0.00089189939916 -0.00086749411766 -0.00087095800975 -0.00089361305674 -0.00092335090764 -0.00099318309285 -0.0011178308946 
-0.001303341995 -0.0015440538743 -0.0015696492115 -0.0012985200104 -0.001149362666 -0.0010606156683 -0.00095875570364 -0.00089223977754 -0.00089628452144 
-0.00094654255233 -0.00095506876012 -0.00092978892285 -0.0008830087024 -0.00084464977424 -0.00084687162995 -0.00087647687237 -0.00093501308196 -0.0010117033035 
-0.0011744223473 -0.0011522766962 -0.0015294243992 -0.0015292624781 -0.0012006457864 -0.0010595675901 -0.00099894128559 -0.00095406126619 -0.00094526092805 
-0.00095118475231 -0.00094262047965 -0.00094821422744 -0.00098209095214 -0.00092986881943 -0.00083821057093 -0.00082687165995 -0.00095759644963 -0.0011232354446 
-0.001181549226 -0.001156912509 -0.0010063428389 -0.00086885783081 -0.00087084857737 -0.00095433374954 -0.00095334420061 -0.00088551301078 -0.00085279746119 
-0.00084595014125 -0.00083074328073 -0.00081110875197 -0.00088314518115 -0.0010350980183 -0.0012648867124 -0.0015795356959 -0.0017158464077 -0.0015733663682 
-0.0012772311749 -0.0011042908423 -0.00098024155688 -0.00091409570516 -0.00093164585641 -0.00095344370873 -0.00095291976911 -0.00093566984879 -0.0008763117352 
-0.0008417817671 -0.00086078842666 -0.00091959486432 -0.0012092444322 -0.001339236628 -0.0015322386576 -0.0015553840895 -0.0022323534259 -0.0022401652122 
-0.0018845748865 -0.0014851697842 -0.0013002380241 -0.0011527778193 -0.0010823101893 -0.0010150819201 -0.00091742066004 -0.00090926189997 -0.00092873021637 
-0.00090448352368 -0.00084090067694 -0.00081380830004 -0.00086270220042 -0.0010785142874 -0.0011599179898 -0.0011408281082 -0.0010449056909 -0.00096944703312 
-0.00098801986884 -0.0010482060361 -0.0010313614799 -0.00095428414295 -0.00091555726889 -0.00086897280938 -0.00082048962969 -0.0007901953484 -0.00085972248138 
-0.00099451804622 -0.001137029597 -0.0013432202168 -0.0016090149829 -0.0015835660126 -0.0013721709189 -0.0011771313654 -0.0010356554997 -0.000958151529 
-0.00093416133921 -0.0009325819718 -0.000930243788 -0.00092711255792 -0.00088007612798 -0.00087038076836 -0.00090315798063 -0.000983298467 -0.0014021512258 
-0.0017489130001 -0.0019246778574 -0.0020587300516 -0.0025564848878 -0.0026804295316 -0.0026091258515 -0.0022968379848 -0.0019224262982 -0.0016420058142 
-0.0015148956672 -0.0012401291735 -0.0009597547489 -0.0009255666912 -0.00095911557297 -0.00097584043788 -0.00092467535767 -0.00087748613064 -0.00089253467686 
-0.00099409963397 -0.0010499692349 -0.0010685031776 -0.0010795342819 -0.0010747548352 -0.0010734404515 -0.0011293684814 -0.0011079453198 -0.0010259731273 
-0.0009917673184 -0.00090066592124 -0.00086473250124 -0.0008130436103 -0.0008520811052 -0.00099824600535 -0.0010921878622 -0.0011711810514 -0.0013326566404 
-0.0013190316008 -0.0011759846043 -0.0010954285227 -0.0009898023232 -0.00092089854664 -0.00090065449904 -0.00089813278726 -0.00089559206512 -0.00088648104491 
-0.00089964095129 -0.00091202393246 -0.00093833745543 -0.0010285135499 -0.0015000638718 -0.0019319217652 -0.0021642706805 -0.0023548141565 -0.0024278216756 
-0.0027871291479 -0.0029348058501 -0.0028431614389 -0.0025804743652 -0.0022378662364 -0.0018508838563 -0.0014540552988 -0.0010916606672 -0.00098783751734 
-0.0010263423034 -0.0010504857114 -0.001014974767 -0.00096456927376 -0.00093907675923 -0.00091193495776 -0.0009063090326 -0.00093728170666 -0.0010156362832 
-0.0011415796768 -0.0012249627657 -0.001245838116 -0.0012273206004 -0.0012003780436 -0.0011232860425 -0.0010166325869 -0.00098329214058 -0.00091608807409 
-0.00088994712586 -0.00098382439888 -0.0010185189772 -0.0010552603223 -0.0010984811566 -0.0010707156393 -0.0010868611747 -0.0010534868843 -0.00095881401132 
-0.00087061316279 -0.00085703569309 -0.00087846991853 -0.00088000528696 -0.00088486772791 -0.00090139511253 -0.00092118467405 -0.00095071978597 -0.0010429558403 
-0.0014073976913 -0.0016382427736 -0.0017581578692 -0.002018718495 -0.0017957828483 -0.0024754550726 -0.0028833559177 -0.0029326495205 -0.002710446946 
-0.0022703856493 -0.0016831181004 -0.0012954413648 -0.0011212529129 -0.0010557238294 -0.0010696400145 -0.0011066198213 -0.0010848437316 -0.001031623135 
-0.00093768904878 -0.00088483265113 -0.0008796693389 -0.00090551020415 -0.00095223990044 -0.0010589235282 -0.0012950033635 -0.0014151781074 -0.0013985379097 
-0.0013248382631 -0.0012158431885 -0.0011126115195 -0.0010779169906 -0.0010357557608 -0.00095124458803 -0.0008855239938 -0.00091791066445 -0.00093584978973 
-0.00094005724215 -0.00093819918057 -0.00098576413256 -0.00097765678692 -0.00087960358225 -0.00081430260666 -0.00081487121066 -0.00089034327325 -0.00091698102357 
-0.00092983458613 -0.00094484584249 -0.00095316428676 -0.00097614508532 -0.0010299148536 -0.0010396156976 -0.00089308045518 -0.0010128426816 -0.0013147020139 
-0.001181310767 -0.0017736053252 -0.0024747980379 -0.0026764305479 -0.0024120868949 -0.0017141437494 -0.0012421664835 -0.0011274930014 -0.0010621975458 
-0.00107573176 -0.0011859210119 -0.0013227917322 -0.0013100491308 -0.0010645059155 -0.00095263237588 -0.00088777278008 -0.00087245582224 -0.00089888962395 
-0.00093838761322 -0.00099244768964 -0.0011492010625 -0.0013211533635 -0.0012621595302 -0.0012033577393 -0.0011802556922 -0.0011401389386 -0.001099398323 
-0.0010337433213 -0.00094126776695 -0.0008678738645 -0.00085862165995 -0.00086255032987 -0.00082807089363 -0.00082809695161 -0.00087336999159 -0.00091632179205 
-0.00085797643092 -0.0008368873932 -0.00085219759133 -0.00098774007459 -0.001156015034 -0.0011249810652 -0.0010842017969 -0.0010703460064 -0.0010669520566 
-0.00092761568328 -0.00073777576669 -0.00067180455894 -0.00073532077227 -0.00091130482117 -0.0008305093057 -0.001176161979 -0.0018325788194 -0.0021603889317 
-0.0016901551176 -0.0010856624871 -0.00095608836242 -0.00097547071004 -0.0009929011531 -0.0010597695145 -0.0011964750483 -0.0015149378163 -0.0015154651248 
-0.0011245856817 -0.0010026711752 -0.000909069011 -0.0008871127576 -0.00091873185502 -0.0009430482472 -0.0009811582697 -0.0010348857888 -0.0011230560099 
-0.0011045153781 -0.0011326522615 -0.0011464024689 -0.0011386454166 -0.0011087734541 -0.0010370938252 -0.00094357237125 -0.00087109170562 -0.0008579702162 
-0.00084505351808 -0.00078851824852 -0.00078605661662 -0.00083490786937 -0.00093844021039 -0.00098346776898 -0.00093829305168 -0.00097056580423 -0.0011956166929 
-0.0014688721592 -0.0015217698258 -0.0014450854473 -0.0013138064819 -0.0011607285157 -0.00085938001938 -0.00076073694487 -0.00067318944915 -0.00065624927499 
-0.00075590073174 -0.00063814730698 -0.0008191228257 -0.0012700488484 -0.0015241320857 -0.00093468611549 -0.00068570086716 -0.00064448027989 -0.00081699297466 
-0.00095516025562 -0.0010942091502 -0.0012882542562 -0.0016914532174 -0.0017695356373 -0.0012509452513 -0.0010354185317 -0.00090781014272 -0.00086946726197 
-0.00091662600057 -0.0009504608262 -0.00098623132889 -0.001025276738 -0.0010497322228 -0.0010447109295 -0.0010775603982 -0.0011105783331 -0.0011198833406 
-0.0011152194248 -0.0010620501008 -0.00096827628873 -0.00092262883551 -0.00094014774546 -0.00092480637222 -0.00085094422299 -0.00083657432539 -0.00089890452297 
-0.0010017468132 -0.0010619638248 -0.0010532811456 -0.0011176793225 -0.0014258760899 -0.0015705185181 -0.0015577587534 -0.0014598727496 -0.001303928284 
-0.0011967124104 -0.0009677980611 -0.0009108499667 -0.0008331145164 -0.00079320389734 -0.00065940156134 -0.00064754674792 -0.00075334051229 -0.0012017294874 
-0.0012241741519 -0.00078794078588 -0.00050222303153 -0.00036456669436 -0.00047781566406 -0.00082769019259 -0.0011167240442 -0.0014405465022 -0.0020041111871 
-0.0021204643179 -0.0015896741524 -0.0010623114981 -0.00088844875636 -0.00084967517015 -0.00089859597488 -0.00096618612253 -0.0010293671851 -0.0011022470444 
-0.0010757992343 -0.0010435370952 -0.0010575172996 -0.0010987201844 -0.0011067672185 -0.0011075326026 -0.0010805467851 -0.0010045183134 -0.00098894746885 
-0.0010049497259 -0.0009982532045 -0.00095258992502 -0.00090215440396 -0.00094951554609 -0.0010544715485 -0.0011162223272 -0.0011331073832 -0.0012960458303 
-0.001475683056 -0.0014823984629 -0.0014272923128 -0.0013177243561 -0.0011748499159 -0.0011512931072 -0.0010974210542 -0.0010591774911 -0.0010319358695 
-0.00096020147759 -0.00074387914568 -0.0008229647972 -0.0011170824057 -0.0014579151328 -0.0013332712749 -0.00098721214233 -0.0006180961636 -0.000401741342 
-0.00045991614712 -0.00073623752135 -0.0011429565909 -0.0017544923702 -0.0023819716727 -0.002421506795 -0.0020038607665 -0.0012523702799 -0.00090059236741 
-0.00086311753082 -0.00093720863653 -0.001052287309 -0.0012848992404 -0.0013138009469 -0.0011740075128 -0.0010987048385 -0.0010796395921 -0.0010721339639 
-0.0010871801649 -0.0010882941647 -0.0010448285116 -0.00097637887163 -0.00098711249598 -0.0010094205777 -0.0010026629703 -0.00096113841179 -0.00094854491448 
-0.00098708872536 -0.0010829626014 -0.0011600665686 -0.0012387585246 -0.0013222841 -0.001334152815 -0.0012876280032 -0.0011856590861 -0.001093600239 