# vtk DataFile Version 4.2
vtk output
ASCII
DATASET UNSTRUCTURED_GRID
POINTS 2601 double
0 0 0 1 0 0 2 0 0 
3 0 0 4 0 0 5 0 0 
6 0 0 7 0 0 8 0 0 
9 0 0 10 0 0 11 0 0 
12 0 0 13 0 0 14 0 0 
15 0 0 16 0 0 17 0 0 
18 0 0 19 0 0 20 0 0 
21 0 0 22 0 0 23 0 0 
24 0 0 25 0 0 26 0 0 
27 0 0 28 0 0 29 0 0 
30 0 0 31 0 0 32 0 0 
33 0 0 34 0 0 35 0 0 
36 0 0 37 0 0 38 0 0 
39 0 0 40 0 0 41 0 0 
42 0 0 43 0 0 44 0 0 
45 0 0 46 0 0 47 0 0 
48 0 0 49 0 0 50 0 0 
0 1 0 1 1 0 2 1 0 
3 1 0 4 1 0 5 1 0 
6 1 0 7 1 0 8 1 0 
9 1 0 10 1 0 11 1 0 
12 1 0 13 1 0 14 1 0 
15 1 0 16 1 0 17 1 0 
18 1 0 19 1 0 20 1 0 
21 1 0 22 1 0 23 1 0 
24 1 0 25 1 0 26 1 0 
27 1 0 28 1 0 29 1 0 
30 1 0 31 1 0 32 1 0 
33 1 0 34 1 0 35 1 0 
36 1 0 37 1 0 38 1 0 
39 1 0 40 1 0 41 1 0 
42 1 0 43 1 0 44 1 0 
45 1 0 46 1 0 47 1 0 
48 1 0 49 1 0 50 1 0 
0 2 0 1 2 0 2 2 0 
3 2 0 4 2 0 5 2 0 
6 2 0 7 2 0 8 2 0 
9 2 0 10 2 0 11 2 0 
12 2 0 13 2 0 14 2 0 
15 2 0 16 2 0 17 2 0 
18 2 0 19 2 0 20 2 0 
21 2 0 22 2 0 23 2 0 
24 2 0 25 2 0 26 2 0 
27 2 0 28 2 0 29 2 0 
30 2 0 31 2 0 32 2 0 
33 2 0 34 2 0 35 2 0 
36 2 0 37 2 0 38 2 0 
39 2 0 40 2 0 41 2 0 
42 2 0 43 2 0 44 2 0 
45 2 0 46 2 0 47 2 0 
48 2 0 49 2 0 50 2 0 
0 3 0 1 3 0 2 3 0 
3 3 0 4 3 0 5 3 0 
6 3 0 7 3 0 8 3 0 
9 3 0 10 3 0 11 3 0 
12 3 0 13 3 0 14 3 0 
15 3 0 16 3 0 17 3 0 
18 3 0 19 3 0 20 3 0 
21 3 0 22 3 0 23 3 0 
24 3 0 25 3 0 26 3 0 
27 3 0 28 3 0 29 3 0 
30 3 0 31 3 0 32 3 0 
33 3 0 34 3 0 35 3 0 
36 3 0 37 3 0 38 3 0 
39 3 0 40 3 0 41 3 0 
42 3 0 43 3 0 44 3 0 
45 3 0 46 3 0 47 3 0 
48 3 0 49 3 0 50 3 0 
0 4 0 1 4 0 2 4 0 
3 4 0 4 4 0 5 4 0 
6 4 0 7 4 0 8 4 0 
9 4 0 10 4 0 11 4 0 
12 4 0 13 4 0 14 4 0 
15 4 0 16 4 0 17 4 0 
18 4 0 19 4 0 20 4 0 
21 4 0 22 4 0 23 4 0 
24 4 0 25 4 0 26 4 0 
27 4 0 28 4 0 29 4 0 
30 4 0 31 4 0 32 4 0 
33 4 0 34 4 0 35 4 0 
36 4 0 37 4 0 38 4 0 
39 4 0 40 4 0 41 4 0 
42 4 0 43 4 0 44 4 0 
45 4 0 46 4 0 47 4 0 
48 4 0 49 4 0 50 4 0 
0 5 0 1 5 0 2 5 0 
3 5 0 4 5 0 5 5 0 
6 5 0 7 5 0 8 5 0 
9 5 0 10 5 0 11 5 0 
12 5 0 13 5 0 14 5 0 
15 5 0 16 5 0 17 5 0 
18 5 0 19 5 0 20 5 0 
21 5 0 22 5 0 23 5 0 
24 5 0 25 5 0 26 5 0 
27 5 0 28 5 0 29 5 0 
30 5 0 31 5 0 32 5 0 
33 5 0 34 5 0 35 5 0 
36 5 0 37 5 0 38 5 0 
39 5 0 40 5 0 41 5 0 
42 5 0 43 5 0 44 5 0 
45 5 0 46 5 0 47 5 0 
48 5 0 49 5 0 50 5 0 
0 6 0 1 6 0 2 6 0 
3 6 0 4 6 0 5 6 0 
6 6 0 7 6 0 8 6 0 
9 6 0 10 6 0 11 6 0 
12 6 0 13 6 0 14 6 0 
15 6 0 16 6 0 17 6 0 
18 6 0 19 6 0 20 6 0 
21 6 0 22 6 0 23 6 0 
24 6 0 25 6 0 26 6 0 
27 6 0 28 6 0 29 6 0 
30 6 0 31 6 0 32 6 0 
33 6 0 34 6 0 35 6 0 
36 6 0 37 6 0 38 6 0 
39 6 0 40 6 0 41 6 0 
42 6 0 43 6 0 44 6 0 
45 6 0 46 6 0 47 6 0 
48 6 0 49 6 0 50 6 0 
0 7 0 1 7 0 2 7 0 
3 7 0 4 7 0 5 7 0 
6 7 0 7 7 0 8 7 0 
9 7 0 10 7 0 11 7 0 
12 7 0 13 7 0 14 7 0 
15 7 0 16 7 0 17 7 0 
18 7 0 19 7 0 20 7 0 
21 7 0 22 7 0 23 7 0 
24 7 0 25 7 0 26 7 0 
27 7 0 28 7 0 29 7 0 
30 7 0 31 7 0 32 7 0 
33 7 0 34 7 0 35 7 0 
36 7 0 37 7 0 38 7 0 
39 7 0 40 7 0 41 7 0 
42 7 0 43 7 0 44 7 0 
45 7 0 46 7 0 47 7 0 
48 7 0 49 7 0 50 7 0 
0 8 0 1 8 0 2 8 0 
3 8 0 4 8 0 5 8 0 
6 8 0 7 8 0 8 8 0 
9 8 0 10 8 0 11 8 0 
12 8 0 13 8 0 14 8 0 
15 8 0 16 8 0 17 8 0 
18 8 0 19 8 0 20 8 0 
21 8 0 22 8 0 23 8 0 
24 8 0 25 8 0 26 8 0 
27 8 0 28 8 0 29 8 0 
30 8 0 31 8 0 32 8 0 
33 8 0 34 8 0 35 8 0 
36 8 0 37 8 0 38 8 0 
39 8 0 40 8 0 41 8 0 
42 8 0 43 8 0 44 8 0 
45 8 0 46 8 0 47 8 0 
48 8 0 49 8 0 50 8 0 
0 9 0 1 9 0 2 9 0 
3 9 0 4 9 0 5 9 0 
6 9 0 7 9 0 8 9 0 
9 9 0 10 9 0 11 9 0 
12 9 0 13 9 0 14 9 0 
15 9 0 16 9 0 17 9 0 
18 9 0 19 9 0 20 9 0 
21 9 0 22 9 0 23 9 0 
24 9 0 25 9 0 26 9 0 
27 9 0 28 9 0 29 9 0 
30 9 0 31 9 0 32 9 0 
33 9 0 34 9 0 35 9 0 
36 9 0 37 9 0 38 9 0 
39 9 0 40 9 0 41 9 0 
42 9 0 43 9 0 44 9 0 
45 9 0 46 9 0 47 9 0 
48 9 0 49 9 0 50 9 0 
0 10 0 1 10 0 2 10 0 
3 10 0 4 10 0 5 10 0 
6 10 0 7 10 0 8 10 0 
9 10 0 10 10 0 11 10 0 
12 10 0 13 10 0 14 10 0 
15 10 0 16 10 0 17 10 0 
18 10 0 19 10 0 20 10 0 
21 10 0 22 10 0 23 10 0 
24 10 0 25 10 0 26 10 0 
27 10 0 28 10 0 29 10 0 
30 10 0 31 10 0 32 10 0 
33 10 0 34 10 0 35 10 0 
36 10 0 37 10 0 38 10 0 
39 10 0 40 10 0 41 10 0 
42 10 0 43 10 0 44 10 0 
45 10 0 46 10 0 47 10 0 
48 10 0 49 10 0 50 10 0 
0 11 0 1 11 0 2 11 0 
3 11 0 4 11 0 5 11 0 
6 11 0 7 11 0 8 11 0 
9 11 0 10 11 0 11 11 0 
12 11 0 13 11 0 14 11 0 
15 11 0 16 11 0 17 11 0 
18 11 0 19 11 0 20 11 0 
21 11 0 22 11 0 23 11 0 
24 11 0 25 11 0 26 11 0 
27 11 0 28 11 0 29 11 0 
30 11 0 31 11 0 32 11 0 
33 11 0 34 11 0 35 11 0 
36 11 0 37 11 0 38 11 0 
39 11 0 40 11 0 41 11 0 
42 11 0 43 11 0 44 11 0 
45 11 0 46 11 0 47 11 0 
48 11 0 49 11 0 50 11 0 
0 12 0 1 12 0 2 12 0 
3 12 0 4 12 0 5 12 0 
6 12 0 7 12 0 8 12 0 
9 12 0 10 12 0 11 12 0 
12 12 0 13 12 0 14 12 0 
15 12 0 16 12 0 17 12 0 
18 12 0 19 12 0 20 12 0 
21 12 0 22 12 0 23 12 0 
24 12 0 25 12 0 26 12 0 
27 12 0 28 12 0 29 12 0 
30 12 0 31 12 0 32 12 0 
33 12 0 34 12 0 35 12 0 
36 12 0 37 12 0 38 12 0 
39 12 0 40 12 0 41 12 0 
42 12 0 43 12 0 44 12 0 
45 12 0 46 12 0 47 12 0 
48 12 0 49 12 0 50 12 0 
0 13 0 1 13 0 2 13 0 
3 13 0 4 13 0 5 13 0 
6 13 0 7 13 0 8 13 0 
9 13 0 10 13 0 11 13 0 
12 13 0 13 13 0 14 13 0 
15 13 0 16 13 0 17 13 0 
18 13 0 19 13 0 20 13 0 
21 13 0 22 13 0 23 13 0 
24 13 0 25 13 0 26 13 0 
27 13 0 28 13 0 29 13 0 
30 13 0 31 13 0 32 13 0 
33 13 0 34 13 0 35 13 0 
36 13 0 37 13 0 38 13 0 
39 13 0 40 13 0 41 13 0 
42 13 0 43 13 0 44 13 0 
45 13 0 46 13 0 47 13 0 
48 13 0 49 13 0 50 13 0 
0 14 0 1 14 0 2 14 0 
3 14 0 4 14 0 5 14 0 
6 14 0 7 14 0 8 14 0 
9 14 0 10 14 0 11 14 0 
12 14 0 13 14 0 14 14 0 
15 14 0 16 14 0 17 14 0 
18 14 0 19 14 0 20 14 0 
21 14 0 22 14 0 23 14 0 
24 14 0 25 14 0 26 14 0 
27 14 0 28 14 0 29 14 0 
30 14 0 31 14 0 32 14 0 
33 14 0 34 14 0 35 14 0 
36 14 0 37 14 0 38 14 0 
39 14 0 40 14 0 41 14 0 
42 14 0 43 14 0 44 14 0 
45 14 0 46 14 0 47 14 0 
48 14 0 49 14 0 50 14 0 
0 15 0 1 15 0 2 15 0 
3 15 0 4 15 0 5 15 0 
6 15 0 7 15 0 8 15 0 
9 15 0 10 15 0 11 15 0 
12 15 0 13 15 0 14 15 0 
15 15 0 16 15 0 17 15 0 
18 15 0 19 15 0 20 15 0 
21 15 0 22 15 0 23 15 0 
24 15 0 25 15 0 26 15 0 
27 15 0 28 15 0 29 15 0 
30 15 0 31 15 0 32 15 0 
33 15 0 34 15 0 35 15 0 
36 15 0 37 15 0 38 15 0 
39 15 0 40 15 0 41 15 0 
42 15 0 43 15 0 44 15 0 
45 15 0 46 15 0 47 15 0 
48 15 0 49 15 0 50 15 0 
0 16 0 1 16 0 2 16 0 
3 16 0 4 16 0 5 16 0 
6 16 0 7 16 0 8 16 0 
9 16 0 10 16 0 11 16 0 
12 16 0 13 16 0 14 16 0 
15 16 0 16 16 0 17 16 0 
18 16 0 19 16 0 20 16 0 
21 16 0 22 16 0 23 16 0 
24 16 0 25 16 0 26 16 0 
27 16 0 28 16 0 29 16 0 
30 16 0 31 16 0 32 16 0 
33 16 0 34 16 0 35 16 0 
36 16 0 37 16 0 38 16 0 
39 16 0 40 16 0 41 16 0 
42 16 0 43 16 0 44 16 0 
45 16 0 46 16 0 47 16 0 
48 16 0 49 16 0 50 16 0 
0 17 0 1 17 0 2 17 0 
3 17 0 4 17 0 5 17 0 
6 17 0 7 17 0 8 17 0 
9 17 0 10 17 0 11 17 0 
12 17 0 13 17 0 14 17 0 
15 17 0 16 17 0 17 17 0 
18 17 0 19 17 0 20 17 0 
21 17 0 22 17 0 23 17 0 
24 17 0 25 17 0 26 17 0 
27 17 0 28 17 0 29 17 0 
30 17 0 31 17 0 32 17 0 
33 17 0 34 17 0 35 17 0 
36 17 0 37 17 0 38 17 0 
39 17 0 40 17 0 41 17 0 
42 17 0 43 17 0 44 17 0 
45 17 0 46 17 0 47 17 0 
48 17 0 49 17 0 50 17 0 
0 18 0 1 18 0 2 18 0 
3 18 0 4 18 0 5 18 0 
6 18 0 7 18 0 8 18 0 
9 18 0 10 18 0 11 18 0 
12 18 0 13 18 0 14 18 0 
15 18 0 16 18 0 17 18 0 
18 18 0 19 18 0 20 18 0 
21 18 0 22 18 0 23 18 0 
24 18 0 25 18 0 26 18 0 
27 18 0 28 18 0 29 18 0 
30 18 0 31 18 0 32 18 0 
33 18 0 34 18 0 35 18 0 
36 18 0 37 18 0 38 18 0 
39 18 0 40 18 0 41 18 0 
42 18 0 43 18 0 44 18 0 
45 18 0 46 18 0 47 18 0 
48 18 0 49 18 0 50 18 0 
0 19 0 1 19 0 2 19 0 
3 19 0 4 19 0 5 19 0 
6 19 0 7 19 0 8 19 0 
9 19 0 10 19 0 11 19 0 
12 19 0 13 19 0 14 19 0 
15 19 0 16 19 0 17 19 0 
18 19 0 19 19 0 20 19 0 
21 19 0 22 19 0 23 19 0 
24 19 0 25 19 0 26 19 0 
27 19 0 28 19 0 29 19 0 
30 19 0 31 19 0 32 19 0 
33 19 0 34 19 0 35 19 0 
36 19 0 37 19 0 38 19 0 
39 19 0 40 19 0 41 19 0 
42 19 0 43 19 0 44 19 0 
45 19 0 46 19 0 47 19 0 
48 19 0 49 19 0 50 19 0 
0 20 0 1 20 0 2 20 0 
3 20 0 4 20 0 5 20 0 
6 20 0 7 20 0 8 20 0 
9 20 0 10 20 0 11 20 0 
12 20 0 13 20 0 14 20 0 
15 20 0 16 20 0 17 20 0 
18 20 0 19 20 0 20 20 0 
21 20 0 22 20 0 23 20 0 
24 20 0 25 20 0 26 20 0 
27 20 0 28 20 0 29 20 0 
30 20 0 31 20 0 32 20 0 
33 20 0 34 20 0 35 20 0 
36 20 0 37 20 0 38 20 0 
39 20 0 40 20 0 41 20 0 
42 20 0 43 20 0 44 20 0 
45 20 0 46 20 0 47 20 0 
48 20 0 49 20 0 50 20 0 
0 21 0 1 21 0 2 21 0 
3 21 0 4 21 0 5 21 0 
6 21 0 7 21 0 8 21 0 
9 21 0 10 21 0 11 21 0 
12 21 0 13 21 0 14 21 0 
15 21 0 16 21 0 17 21 0 
18 21 0 19 21 0 20 21 0 
21 21 0 22 21 0 23 21 0 
24 21 0 25 21 0 26 21 0 
27 21 0 28 21 0 29 21 0 
30 21 0 31 21 0 32 21 0 
33 21 0 34 21 0 35 21 0 
36 21 0 37 21 0 38 21 0 
39 21 0 40 21 0 41 21 0 
42 21 0 43 21 0 44 21 0 
45 21 0 46 21 0 47 21 0 
48 21 0 49 21 0 50 21 0 
0 22 0 1 22 0 2 22 0 
3 22 0 4 22 0 5 22 0 
6 22 0 7 22 0 8 22 0 
9 22 0 10 22 0 11 22 0 
12 22 0 13 22 0 14 22 0 
15 22 0 16 22 0 17 22 0 
18 22 0 19 22 0 20 22 0 
21 22 0 22 22 0 23 22 0 
24 22 0 25 22 0 26 22 0 
27 22 0 28 22 0 29 22 0 
30 22 0 31 22 0 32 22 0 
33 22 0 34 22 0 35 22 0 
36 22 0 37 22 0 38 22 0 
39 22 0 40 22 0 41 22 0 
42 22 0 43 22 0 44 22 0 
45 22 0 46 22 0 47 22 0 
48 22 0 49 22 0 50 22 0 
0 23 0 1 23 0 2 23 0 
3 23 0 4 23 0 5 23 0 
6 23 0 7 23 0 8 23 0 
9 23 0 10 23 0 11 23 0 
12 23 0 13 23 0 14 23 0 
15 23 0 16 23 0 17 23 0 
18 23 0 19 23 0 20 23 0 
21 23 0 22 23 0 23 23 0 
24 23 0 25 23 0 26 23 0 
27 23 0 28 23 0 29 23 0 
30 23 0 31 23 0 32 23 0 
33 23 0 34 23 0 35 23 0 
36 23 0 37 23 0 38 23 0 
39 23 0 40 23 0 41 23 0 
42 23 0 43 23 0 44 23 0 
45 23 0 46 23 0 47 23 0 
48 23 0 49 23 0 50 23 0 
0 24 0 1 24 0 2 24 0 
3 24 0 4 24 0 5 24 0 
6 24 0 7 24 0 8 24 0 
9 24 0 10 24 0 11 24 0 
12 24 0 13 24 0 14 24 0 
15 24 0 16 24 0 17 24 0 
18 24 0 19 24 0 20 24 0 
21 24 0 22 24 0 23 24 0 
24 24 0 25 24 0 26 24 0 
27 24 0 28 24 0 29 24 0 
30 24 0 31 24 0 32 24 0 
33 24 0 34 24 0 35 24 0 
36 24 0 37 24 0 38 24 0 
39 24 0 40 24 0 41 24 0 
42 24 0 43 24 0 44 24 0 
45 24 0 46 24 0 47 24 0 
48 24 0 49 24 0 50 24 0 
0 25 0 1 25 0 2 25 0 
3 25 0 4 25 0 5 25 0 
[...]
CELL_DATA 2500
SCALARS $\mu_{AB} double
LOOKUP_TABLE default
-0.0008970004983 -0.00060343030928 -0.00058790068984 -0.00078720661086 -0.00107151158 -0.0014138703187 -0.0016053488114 -0.0016136571836 -0.0015713491658 
-0.0015572242973 -0.0015815821051 -0.0015744975029 -0.0013821573074 -0.00074377510696 -0.0006581240086 -0.00078359011804 -0.00091272020433 -0.00076897405849 
-0.00061757333579 -0.00062406994175 -0.0008514137324 -0.0010037354103 -0.0010544546193 -0.0010596402823 -0.0010135701979 -0.00095166384949 -0.00096318641556 
-0.0010343132234 -0.0010307378878 -0.00101347535 -0.0010146979247 -0.001044704431 -0.00097120909128 -0.00088782628415 -0.00086326542775 -0.0008882751074 
-0.00088563085419 -0.0008989178295 -0.00091598343761 -0.00093001910404 -0.00097714506398 -0.0011598976359 -0.0012801844092 -0.001294731916 -0.0012831025361 
-0.0012600735841 -0.0012205699028 -0.0011626975526 -0.0011343028261 -0.0010972481095 -0.0010872908264 -0.0009197066934 -0.00090179697436 -0.00098261429454 
-0.0011554449449 -0.0014521413113 -0.0016554060628 -0.0016740166637 -0.0016324377257 -0.0015941831498 -0.001580374679 -0.0015646515151 -0.001429276671 
-0.0010042600893 -0.000881049805 -0.00100556313 -0.0010874019673 -0.0010068896079 -0.0008600173176 -0.00081012902325 -0.00077888795525 -0.00090972077543 
-0.0010402919624 -0.0010682304512 -0.0010362816735 -0.0010091751872 -0.0010531931371 -0.0010572802397 -0.0010297521012 -0.001004275937 -0.00099857629821 
-0.0010158420465 -0.00099940252846 -0.00094202127853 -0.00090236522655 -0.00089313153788 -0.00087950219928 -0.00087588604606 -0.00088463944056 -0.00089323629616 
-0.00091812216816 -0.00099367951031 -0.0011967139462 -0.0012487174892 -0.0012358431122 -0.0012130884594 -0.0011975879548 -0.0011755363755 -0.0011801944943 
-0.001170066492 -0.0011264943785 -0.00098772132074 -0.00095934701699 -0.00099813589882 -0.0010772985637 -0.0012310698 -0.0015418324526 -0.0016478750294 
-0.0016098339681 -0.0015418259666 -0.0015010199992 -0.0014509908268 -0.0013844030963 -0.0012825977577 -0.0011682831956 -0.0012279447189 -0.0013187714749 
-0.0012523194974 -0.0011640563682 -0.00087529984747 -0.00060761773623 -0.00061574963028 -0.00088910685277 -0.0010571522218 -0.0011012068845 -0.0010978393653 
-0.0010880363816 -0.0010741313039 -0.0010451666849 -0.001008085174 -0.0010099408751 -0.001041601494 -0.0010529306756 -0.0010490815053 -0.00095468017058 
-0.0009283603845 -0.00090414018607 -0.00089514807211 -0.00088802302363 -0.00088966996956 -0.00091081106192 -0.00094576480753 -0.0011002588045 -0.0011581450541 
-0.0011546518818 -0.0011437263423 -0.0011491971654 -0.001206810041 -0.0012325911503 -0.0012288908937 -0.0010558356265 -0.00099564763339 -0.00097087706486 
-0.00099641323547 -0.0010463673027 -0.0011043383751 -0.0012505841024 -0.0014521174829 -0.0014146146825 -0.001271303308 -0.0011743878648 -0.001105633007 
-0.0011961938496 -0.001406477189 -0.0015854324305 -0.001641313219 -0.0016751013192 -0.0016070596918 -0.0013067467783 -0.00088077192891 -0.00058999669429 
-0.00057933597554 -0.00084875607289 -0.0010801629979 -0.0011955578931 -0.0011521790277 -0.0010885006703 -0.0010578370657 -0.0010108548575 -0.00097605016748 
-0.0010152468072 -0.001068132355 -0.0011041575035 -0.001170298398 -0.0010288921198 -0.00096422047062 -0.00093246271785 -0.00091979482423 -0.00090246590035 
-0.00090102161149 -0.00092008087991 -0.00096061542593 -0.0010564001726 -0.0010862455203 -0.0011107581536 -0.0011160668839 -0.0011541522872 -0.001221493562 
-0.0012639482368 -0.0012366976838 -0.0010733960657 -0.001032155062 -0.00099646841638 -0.0010030724463 -0.0010241897234 -0.0010478931444 -0.0010783603143 
-0.0011219933874 -0.001050261081 -0.0010260409613 -0.0010052112293 -0.00099333719301 -0.00104523188 -0.0013115372225 -0.0017500783627 -0.0019700899825 
-0.0019647974863 -0.0017393033008 -0.0013997260118 -0.00098910262048 -0.00064568387705 -0.00072421462958 -0.0010135816663 -0.001210764286 -0.0013219408625 
-0.0012509786091 -0.0010697362981 -0.0010112385834 -0.00094245877084 -0.00092686655259 -0.00098635625398 -0.0010668575693 -0.0011731549259 -0.0013438985355 
-0.001200679569 -0.00099601026147 -0.00094281903601 -0.00091768157295 -0.00090770197386 -0.00091550458184 -0.00095097939846 -0.0010604639437 -0.0010678120123 
-0.001071082137 -0.0010994039137 -0.0011195757786 -0.0011668614401 -0.0012470839135 -0.0012920423118 -0.0011974251957 -0.0011008457065 -0.0010616091382 
-0.0010332132885 -0.00098375509726 -0.00097898079855 -0.00099697123924 -0.0010031624037 -0.00098298711228 -0.00096500869831 -0.00095548470357 -0.00095616345675 
-0.00096277621005 -0.0010118114166 -0.0011426906871 -0.0016583579206 -0.0019473152017 -0.0018989961279 -0.0016205126147 -0.0012809420798 -0.00089426300493 
-0.00067381115239 -0.00098608294299 -0.0012662895438 -0.0014572118745 -0.0015181588495 -0.001417581388 -0.0011432659935 -0.00098649398718 -0.00090860036086 
-0.00089594856342 -0.00095736236378 -0.0010750778953 -0.0013523930618 -0.0015018646084 -0.0013830976816 -0.0011097807386 -0.00096477449358 -0.00092826356946 
-0.00092246170917 -0.00095244278094 -0.0010805153877 -0.0011103645465 -0.001087152078 -0.0010850469547 -0.00111581595 -0.00114746249 -0.0012109438083 
-0.0013111054315 -0.0013442608894 -0.0012139150951 -0.0011070139614 -0.0010624769705 -0.0010211632512 -0.00097990153924 -0.0009624971578 -0.0009705114524 
-0.00098447115618 -0.0009805338026 -0.00097572554205 -0.00097874296324 -0.00099459537987 -0.00098488271586 -0.0010124870573 -0.0010913204326 -0.0014841554794 
-0.0017507394019 -0.0016903636577 -0.0013093943146 -0.00095487697857 -0.00062235535419 -0.00059632237841 -0.00095716464076 -0.0013174871745 -0.0015262429479 
-0.0015939408504 -0.0014722355224 -0.0012071108762 -0.0010381572891 -0.00094184388374 -0.00091439344977 -0.00097055314445 -0.0011501806322 -0.001407223667 
-0.0014795027262 -0.0013314860255 -0.0011271502963 -0.0010322732219 -0.00097945260688 -0.00098109524025 -0.0010898033239 -0.0011573394472 -0.0011558438325 
-0.0011238398951 -0.001117405776 -0.0011517989632 -0.0011846491148 -0.0012243202129 -0.0013169062535 -0.0013510521822 -0.0012553262688 -0.0011302524572 
-0.0010580114331 -0.0010189180735 -0.00099046468144 -0.00098087466111 -0.0010020502833 -0.0010392445782 -0.0010236235282 -0.0010170387111 -0.0010307963428 
-0.0010373707168 -0.0010196194216 -0.0010233567593 -0.0010781112553 -0.0013364190281 -0.0014763846849 -0.0014402297106 -0.0012315414079 -0.00086033524833 
-0.00054881428067 -0.00059579547998 -0.00091056984494 -0.0012717180258 -0.0014876252475 -0.001537288882 -0.0013622881904 -0.0011447071991 -0.0010596339449 
-0.00098489023215 -0.00095543197389 -0.00099160097938 -0.0010652443939 -0.0012565902514 -0.0012383872458 -0.0010555869153 -0.0010253109716 -0.0010379172689 
-0.0010483179299 -0.0010657069627 -0.0011431211807 -0.0011731299506 -0.0011634629028 -0.0011311914314 -0.0011225727042 -0.0011535810586 -0.0011807704487 
-0.0011968191912 -0.0012355882615 -0.0013027913433 -0.0012525024307 -0.0010638567625 -0.0010233609613 -0.0010197989936 -0.0010254149482 -0.0010947684028 
-0.0011611789616 -0.0011415774929 -0.0010900115228 -0.0010552560327 -0.0010637091745 -0.0010632209019 -0.0010460000572 -0.0010427713753 -0.0011087722135 
-0.0012206100336 -0.0012562288285 -0.0012512276849 -0.0011862665705 -0.00098973282817 -0.00065538216171 -0.00065165968072 -0.00093429916111 -0.0012268343653 
-0.0013699935967 -0.001382285096 -0.0012149975723 -0.0011345145925 -0.0010808623827 -0.0010242692286 -0.00099862688596 -0.0010374255094 -0.0010594739813 
-0.0010888614108 -0.001002805015 -0.00097089624497 -0.00099331703757 -0.0010273689504 -0.0010460553084 -0.0010551074323 -0.00110182602 -0.0011408027866 
-0.0011316411523 -0.0010978876689 -0.0010913335763 -0.0011158642589 -0.0011251405112 -0.0010982209234 -0.0011555022528 -0.0012448082251 -0.0012016678582 
-0.0008893901119 -0.00087942058338 -0.00099214029092 -0.0010875464689 -0.0011874606533 -0.0012281990142 -0.0012009268459 -0.0011516753622 -0.0010955003162 
-0.0010739869918 -0.0010670095219 -0.0010500853934 -0.0010594805555 -0.00113055555 -0.0011766957187 -0.001210967831 -0.0012141397486 -0.0011796394335 
-0.0011070424828 -0.00092714274956 -0.00086670721345 -0.00096226357099 -0.0010579947865 -0.0011125597905 -0.0011797776949 -0.0011173799657 -0.0010882759965 
-0.0010544720142 -0.0010403416142 -0.0010688507316 -0.0010885525973 -0.0010928650825 -0.0010366884343 -0.00095886874061 -0.00094569250439 -0.00096266502036 
-0.0010143210854 -0.0010190604595 -0.0010233324274 -0.0010397501014 -0.0010888531403 -0.0011008828858 -0.0010693798003 -0.0010615821282 -0.0010735237134 
-0.00098064469367 -0.0009169685398 -0.00098046109941 -0.0010920758831 -0.0010381372598 -0.00076782747585 -0.00077358864278 -0.00096336085507 -0.0010572170044 
-0.0011684113319 -0.0012112547887 -0.001182012694 -0.0011567133803 -0.0011047983187 -0.0010651805604 -0.001042885034 -0.0010152581709 -0.0010184918605 
-0.0011019577657 -0.0011352550235 -0.0011761920395 -0.0011864868287 -0.0011525546015 -0.0010782383873 -0.00092790527743 -0.00086924531624 -0.00094758309467 
-0.0010137239764 -0.001022813408 -0.0010229052304 -0.0010328625136 -0.0010267110028 -0.0010125222735 -0.0010270950856 -0.0010822671518 -0.0011181571956 
-0.0011244676389 -0.0010481459819 -0.00099062912664 -0.00097555324612 -0.00098101000783 -0.00096364638989 -0.00096272110766 -0.00097002414252 -0.00097916493347 
-0.0010102940436 -0.0010193985081 -0.0010138522976 -0.0010055833672 -0.00095914927302 -0.00079847196885 -0.00076807525213 -0.00082805128394 -0.00091757948149 
-0.00087066486389 -0.00080596272671 -0.00080444652872 -0.00089091023044 -0.00095160868789 -0.0010703784675 -0.0011246286953 -0.0010857984932 -0.0010779012958 
-0.0010520368941 -0.0010163058109 -0.0010154697447 -0.00098524319884 -0.0009468098199 -0.0010221311668 -0.0010898816521 -0.0011427937308 -0.0011617160749 
-0.0011310053525 -0.0010259931661 -0.00085806309013 -0.00081609162564 -0.00088339616594 -0.00096596380025 -0.00096114848981 -0.00094677677011 -0.00095640017131 
-0.00098732707971 -0.00099072412754 -0.0010197052701 -0.0010772764521 -0.0011296983854 -0.0011705049825 -0.0011281716595 -0.0010524875646 -0.0010277321144 
-0.0010097565293 -0.00094985102579 -0.0009240850742 -0.00092549558546 -0.00093592456131 -0.00094803365106 -0.00092813972915 -0.00089806027784 -0.00087480155709 
-0.00086154897672 -0.00078233248242 -0.00077295337382 -0.00084721416863 -0.00098339196943 -0.00093772101311 -0.0010177352122 -0.00097825166261 -0.00092780004738 
-0.00091867936368 -0.00094936096164 -0.00096232874155 -0.00097938846703 -0.00098398327271 -0.00098804297548 -0.00099009788292 -0.00099495895321 -0.00095862072954 
-0.00090540814885 -0.00092088752584 -0.0010486259036 -0.0011370273499 -0.0011721407568 -0.0011384732003 -0.0010122590057 -0.00083816469268 -0.00080261011569 
-0.00084124249191 -0.00093156619565 -0.00091387007576 -0.00089288868265 -0.00089473738607 -0.00092149947909 -0.00095610488546 -0.0010004668716 -0.0010711847654 
-0.0011618617784 -0.0012765684981 -0.0012785879478 -0.0011338460744 -0.0010702680333 -0.0010275231482 -0.00096890396856 -0.00092489159761 -0.00092034158101 
-0.00093669383187 -0.00093702587314 -0.00091699796052 -0.00088416356902 -0.00085851645777 -0.00085984400599 -0.00087844350186 -0.00093365000643 -0.0010176963514 
-0.0011559556059 -0.0011484340502 -0.0013657973433 -0.0013857286203 -0.0011455017597 -0.001044326499 -0.00098691510538 -0.00093420057845 -0.0009268989877 
-0.00093739460301 -0.0009485266888 -0.0009545603469 -0.00097124918317 -0.00092178373177 -0.00084929569974 -0.00084554580726 -0.00096492278683 -0.0011205743066 
-0.0011708841431 -0.0011426902911 -0.00098920913962 -0.00086535496932 -0.00086938222954 -0.00094464052753 -0.00096524498802 -0.00091669491842 -0.00088789586238 
-0.00087857529882 -0.00086329535103 -0.00085018455246 -0.00089818608983 -0.00099356343318 -0.0011206934607 -0.0012898852845 -0.001365247714 -0.0012808400427 
-0.0011268645655 -0.0010450460481 -0.0009767905504 -0.00093209637412 -0.00093115000222 -0.00093929768756 -0.00093760914097 -0.00092326641954 -0.00088142696539 
-0.00085857936397 -0.00087120011337 -0.00090265259903 -0.001078702404 -0.0011973364133 -0.0013629581691 -0.0013956529994 -0.0020197504167 -0.0021001192325 
-0.0017557532987 -0.00142317406 -0.0012564539593 -0.0011043534856 -0.0010312050827 -0.00099018855451 -0.00093822906735 -0.00093562827402 -0.0009475918774 
-0.00090830209111 -0.00084949070296 -0.00082757896736 -0.00087163950591 -0.0010691284502 -0.0011416950129 -0.0011120092515 -0.0010048059386 -0.00094114145411 
-0.00096278628704 -0.0010196703337 -0.0010191297515 -0.00096738427859 -0.00093408105711 -0.00089115151634 -0.00085414976324 -0.00083471598467 -0.00088221785928 
-0.00097221480188 -0.0010606992561 -0.0011647996942 -0.0013087283689 -0.0012909786022 -0.0011753567191 -0.001074772646 -0.00099421850085 -0.00094338693621 
-0.00092714783492 -0.000926436299 -0.00092479267961 -0.00092122931188 -0.00088671014382 -0.00088221278474 -0.00090232314723 -0.00094326367965 -0.001175321964 
-0.0014305967672 -0.001594223454 -0.0017631077206 -0.0023764301055 -0.0025922933114 -0.0025455381854 -0.0021897746025 -0.0017896247844 -0.0014965099125 
-0.0013764665451 -0.0011546694331 -0.0009700447379 -0.0009499359103 -0.0009693527016 -0.00096413256207 -0.00091290910505 -0.00087141821163 -0.00088348954253 
-0.00097289408456 -0.0010173712078 -0.001018202857 -0.0010066804998 -0.00099921849181 -0.0010119498438 -0.001064117093 -0.0010584981856 -0.0010038193602 
-0.00096941856769 -0.00090790269787 -0.00088688958842 -0.00085464818972 -0.00088542592194 -0.00098856272083 -0.0010499226166 -0.0010882920955 -0.0011619738888 
-0.0011459659965 -0.0010767139049 -0.001036175942 -0.00096915564335 -0.00091839206902 -0.00090438136205 -0.00090392014876 -0.00090252713315 -0.00089602919119 
-0.00090487593093 -0.00091472310389 -0.00092819227525 -0.00097338455583 -0.0012392266608 -0.0015617882128 -0.0017900402861 -0.0020574715712 -0.0022438550271 
-0.0027055779738 -0.0028991460184 -0.0027960340657 -0.0024888012937 -0.0021003282568 -0.0016935925676 -0.0013258200564 -0.0010529092061 -0.00098771831004 
-0.0010093039723 -0.0010139298168 -0.00097656612819 -0.0009323309782 -0.00091384806366 -0.00090129128452 -0.00089668990374 -0.00091465386024 -0.00095782968895 
-0.0010217135084 -0.0010750199757 -0.0011071873302 -0.0011034159914 -0.0010799619217 -0.0010382702549 -0.00098531136041 -0.00096839792707 -0.00092833860226 
-0.00091363724833 -0.00098593362131 -0.0010095588823 -0.0010271177323 -0.0010368329849 -0.0010128439045 -0.0010328199647 -0.0010155380249 -0.00095280885123 
-0.00088959846956 -0.00087659250814 -0.00088941976867 -0.0008908469984 -0.00089361189156 -0.0009051398126 -0.00091913470293 -0.0009351722993 -0.00097515615482 
-0.0011610149811 -0.0012990409932 -0.0014039980421 -0.0017283305108 -0.001623019992 -0.0023294522016 -0.0028111687582 -0.0028684620795 -0.0026100512349 
-0.0021181973391 -0.0015184532172 -0.0011872761124 -0.001073404304 -0.0010299399963 -0.0010317568339 -0.0010423033733 -0.0010141325841 -0.00097096310335 
-0.00091667033278 -0.00088475904118 -0.0008789873363 -0.00089654967049 -0.00092960898612 -0.00098003327069 -0.0010934274302 -0.0011664378694 -0.0011716219631 
-0.0011471273341 -0.0011039443167 -0.0010538428941 -0.0010356990782 -0.0010120822892 -0.00095832055778 -0.00091716629078 -0.00094176091492 -0.00094940560577 
-0.00093465468329 -0.00093089484001 -0.00096938743342 -0.00096849916871 -0.00090152995067 -0.00085390810051 -0.00085080422571 -0.00089224045628 -0.00091190893086 
-0.00092036375337 -0.00093021324027 -0.00093537669697 -0.00094250399098 -0.00093552912722 -0.00088713636804 -0.00079172661309 -0.00092052923111 -0.0012008432616 
-0.0011481272343 -0.0016088312003 -0.0023175267164 -0.0025537345431 -0.0022558860643 -0.0015060421822 -0.0011260044095 -0.0010692142441 -0.00104899692 
-0.0010675187524 -0.0011031195948 -0.0011579251793 -0.0011371913509 -0.00098949413539 -0.00093160621439 -0.00089243878201 -0.00088069520247 -0.00090174694092 
-0.00093336467553 -0.00096169836929 -0.0010287097674 -0.0011246326924 -0.001123868728 -0.0011204852021 -0.0011215910254 -0.0010892810372 -0.0010552238914 
-0.0010119517965 -0.00094880238948 -0.00089968906 -0.0008954372332 -0.00089321422712 -0.00085440996473 -0.0008542040114 -0.00089210812082 -0.00092736593689 
-0.00088773442683 -0.00087054156799 -0.00087629757935 -0.00095234416138 -0.0010672172201 -0.0010489918732 -0.0010226580796 -0.0010055842671 -0.00097645446189 
-0.00084484369512 -0.00071169433854 -0.00066968238223 -0.00074267221526 -0.00092107020965 -0.00085729697143 -0.0011062157054 -0.0016063117596 -0.0019657040994 
-0.0014486990101 -0.00093183955625 -0.0008993625562 -0.00096659855134 -0.0010208684275 -0.0010797709999 -0.0011383694514 -0.0012866033447 -0.0012735471833 
-0.0010323042276 -0.00097027227538 -0.00091496214481 -0.00089615321351 -0.00092553048773 -0.0009492960582 -0.00097175697549 -0.0009983009854 -0.0010674273589 
-0.0010797948258 -0.0011027910963 -0.0011192063798 -0.0011168213224 -0.0010765528809 -0.0010165256614 -0.00094930083509 -0.00089967947741 -0.00089161473445 
-0.00087350341581 -0.00082588350079 -0.00082531144837 -0.00086619014172 -0.0009474835741 -0.0009801468002 -0.00094361810458 -0.00095984511709 -0.001102233387 
-0.0013190367845 -0.0013882024938 -0.0013322283194 -0.0012036629777 -0.0010507574507 -0.00081932542698 -0.00075650585257 -0.00069383980372 -0.00069804518276 
-0.00082562742925 -0.00065306296585 -0.0007896601217 -0.0010786742001 -0.0013100868367 -0.0007212683279 -0.00054290665706 -0.00059995659104 -0.00082956032956 
-0.0010108750067 -0.0011127432966 -0.001206879226 -0.0014215600426 -0.0014685097213 -0.0011121498498 -0.00099629945688 -0.00092219694156 -0.00089350222713 
-0.0009245075212 -0.00095397922628 -0.00097810518902 -0.0010106793085 -0.0010552734431 -0.0010638654467 -0.0010856971133 -0.0011091976868 -0.0011146193388 
-0.001105237067 -0.0010467150996 -0.00096825269555 -0.00093588839319 -0.00095217092367 -0.00093324911664 -0.00087030766256 -0.00086301344519 -0.00091472720288 
-0.00099238634894 -0.0010356930938 -0.0010257725508 -0.0010637040524 -0.0012869143984 -0.0014264428038 -0.0014422009175 -0.0013705872388 -0.0012325630995 
-0.0011192216335 -0.00093070877099 -0.00089302545653 -0.00084570393586 -0.00082607947559 -0.00068083785239 -0.00064687361285 -0.00072984061364 -0.0011070197955 
-0.001112381439 -0.00061376444582 -0.00033389374169 -0.00024812081102 -0.0004357765972 -0.00085102095572 -0.0010935574562 -0.0012725841274 -0.0016546630599 
-0.0017591064477 -0.0013341258283 -0.0010100592714 -0.00090662169395 -0.00087575717973 -0.00090152982057 -0.00094596864449 -0.00098412473526 -0.0010589422706 
-0.0010747326111 -0.0010717966069 -0.0010798601799 -0.0011025113615 -0.0011035661656 -0.0010983668422 -0.0010657333527 -0.00099478628221 -0.0009886850312 
-0.001008451278 -0.00099304434449 -0.00093894001911 -0.00090431884805 -0.0009466258194 -0.0010251778114 -0.0010699088024 -0.0010778818533 -0.0011900985258 
-0.0013445722133 -0.0013706348676 -0.0013639497651 -0.0012939168356 -0.0011692161753 -0.001120498331 -0.0010514050393 -0.0010250750916 -0.0010177642473 
-0.00095642491316 -0.00074361509606 -0.0008000733084 -0.0010685287057 -0.0014816628937 -0.0013301244517 -0.00086750645015 -0.00042226347381 -0.00022209351361 
-0.0003511055233 -0.00067336762508 -0.0010169828932 -0.0014049953275 -0.0019617100906 -0.0020221278009 -0.0016690323349 -0.0011031301974 -0.0008999508757 
-0.0008673590538 -0.00090287275611 -0.00096549881414 -0.0010778680404 -0.0011509192453 -0.0011231934784 -0.0011048561062 -0.0010984766441 -0.0010847823545 
-0.0010861040582 -0.0010783463939 -0.0010258131586 -0.00095981427144 -0.00098270713976 -0.001009480519 -0.00099317220439 -0.00093549847095 -0.00091784818949 
-0.00095849590968 -0.0010385660299 -0.0010977494886 -0.0011529131117 -0.0012085121049 -0.0012249628873 -0.0012102453463 -0.0011904676506 -0.0011614404954 