# vtk DataFile Version 4.2
vtk output
ASCII
DATASET UNSTRUCTURED_GRID
POINTS 2601 double
0 0 0 1 0 0 2 0 0 
3 0 0 4 0 0 5 0 0 
6 0 0 7 0 0 8 0 0 
9 0 0 10 0 0 11 0 0 
12 0 0 13 0 0 14 0 0 
15 0 0 16 0 0 17 0 0 
18 0 0 19 0 0 20 0 0 
21 0 0 22 0 0 23 0 0 
24 0 0 25 0 0 26 0 0 
27 0 0 28 0 0 29 0 0 
30 0 0 31 0 0 32 0 0 
33 0 0 34 0 0 35 0 0 
36 0 0 37 0 0 38 0 0 
39 0 0 40 0 0 41 0 0 
42 0 0 43 0 0 44 0 0 
45 0 0 46 0 0 47 0 0 
48 0 0 49 0 0 50 0 0 
0 1 0 1 1 0 2 1 0 
3 1 0 4 1 0 5 1 0 
6 1 0 7 1 0 8 1 0 
9 1 0 10 1 0 11 1 0 
12 1 0 13 1 0 14 1 0 
15 1 0 16 1 0 17 1 0 
18 1 0 19 1 0 20 1 0 
21 1 0 22 1 0 23 1 0 
24 1 0 25 1 0 26 1 0 
27 1 0 28 1 0 29 1 0 
30 1 0 31 1 0 32 1 0 
33 1 0 34 1 0 35 1 0 
36 1 0 37 1 0 38 1 0 
39 1 0 40 1 0 41 1 0 
42 1 0 43 1 0 44 1 0 
45 1 0 46 1 0 47 1 0 
48 1 0 49 1 0 50 1 0 
0 2 0 1 2 0 2 2 0 
3 2 0 4 2 0 5 2 0 
6 2 0 7 2 0 8 2 0 
9 2 0 10 2 0 11 2 0 
12 2 0 13 2 0 14 2 0 
15 2 0 16 2 0 17 2 0 
18 2 0 19 2 0 20 2 0 
21 2 0 22 2 0 23 2 0 
24 2 0 25 2 0 26 2 0 
27 2 0 28 2 0 29 2 0 
30 2 0 31 2 0 32 2 0 
33 2 0 34 2 0 35 2 0 
36 2 0 37 2 0 38 2 0 
39 2 0 40 2 0 41 2 0 
42 2 0 43 2 0 44 2 0 
45 2 0 46 2 0 47 2 0 
48 2 0 49 2 0 50 2 0 
0 3 0 1 3 0 2 3 0 
3 3 0 4 3 0 5 3 0 
6 3 0 7 3 0 8 3 0 
9 3 0 10 3 0 11 3 0 
12 3 0 13 3 0 14 3 0 
15 3 0 16 3 0 17 3 0 
18 3 0 19 3 0 20 3 0 
21 3 0 22 3 0 23 3 0 
24 3 0 25 3 0 26 3 0 
27 3 0 28 3 0 29 3 0 
30 3 0 31 3 0 32 3 0 
33 3 0 34 3 0 35 3 0 
36 3 0 37 3 0 38 3 0 
39 3 0 40 3 0 41 3 0 
42 3 0 43 3 0 44 3 0 
45 3 0 46 3 0 47 3 0 
48 3 0 49 3 0 50 3 0 
0 4 0 1 4 0 2 4 0 
3 4 0 4 4 0 5 4 0 
6 4 0 7 4 0 8 4 0 
9 4 0 10 4 0 11 4 0 
12 4 0 13 4 0 14 4 0 
15 4 0 16 4 0 17 4 0 
18 4 0 19 4 0 20 4 0 
21 4 0 22 4 0 23 4 0 
24 4 0 25 4 0 26 4 0 
27 4 0 28 4 0 29 4 0 
30 4 0 31 4 0 32 4 0 
33 4 0 34 4 0 35 4 0 
36 4 0 37 4 0 38 4 0 
39 4 0 40 4 0 41 4 0 
42 4 0 43 4 0 44 4 0 
45 4 0 46 4 0 47 4 0 
48 4 0 49 4 0 50 4 0 
0 5 0 1 5 0 2 5 0 
3 5 0 4 5 0 5 5 0 
6 5 0 7 5 0 8 5 0 
9 5 0 10 5 0 11 5 0 
12 5 0 13 5 0 14 5 0 
15 5 0 16 5 0 17 5 0 
18 5 0 19 5 0 20 5 0 
21 5 0 22 5 0 23 5 0 
24 5 0 25 5 0 26 5 0 
27 5 0 28 5 0 29 5 0 
30 5 0 31 5 0 32 5 0 
33 5 0 34 5 0 35 5 0 
36 5 0 37 5 0 38 5 0 
39 5 0 40 5 0 41 5 0 
42 5 0 43 5 0 44 5 0 
45 5 0 46 5 0 47 5 0 
48 5 0 49 5 0 50 5 0 
0 6 0 1 6 0 2 6 0 
3 6 0 4 6 0 5 6 0 
6 6 0 7 6 0 8 6 0 
9 6 0 10 6 0 11 6 0 
12 6 0 13 6 0 14 6 0 
15 6 0 16 6 0 17 6 0 
18 6 0 19 6 0 20 6 0 
21 6 0 22 6 0 23 6 0 
24 6 0 25 6 0 26 6 0 
27 6 0 28 6 0 29 6 0 
30 6 0 31 6 0 32 6 0 
33 6 0 34 6 0 35 6 0 
36 6 0 37 6 0 38 6 0 
39 6 0 40 6 0 41 6 0 
42 6 0 43 6 0 44 6 0 
45 6 0 46 6 0 47 6 0 
48 6 0 49 6 0 50 6 0 
0 7 0 1 7 0 2 7 0 
3 7 0 4 7 0 5 7 0 
6 7 0 7 7 0 8 7 0 
9 7 0 10 7 0 11 7 0 
12 7 0 13 7 0 14 7 0 
15 7 0 16 7 0 17 7 0 
18 7 0 19 7 0 20 7 0 
21 7 0 22 7 0 23 7 0 
24 7 0 25 7 0 26 7 0 
27 7 0 28 7 0 29 7 0 
30 7 0 31 7 0 32 7 0 
33 7 0 34 7 0 35 7 0 
36 7 0 37 7 0 38 7 0 
39 7 0 40 7 0 41 7 0 
42 7 0 43 7 0 44 7 0 
45 7 0 46 7 0 47 7 0 
48 7 0 49 7 0 50 7 0 
0 8 0 1 8 0 2 8 0 
3 8 0 4 8 0 5 8 0 
6 8 0 7 8 0 8 8 0 
9 8 0 10 8 0 11 8 0 
12 8 0 13 8 0 14 8 0 
15 8 0 16 8 0 17 8 0 
18 8 0 19 8 0 20 8 0 
21 8 0 22 8 0 23 8 0 
24 8 0 25 8 0 26 8 0 
27 8 0 28 8 0 29 8 0 
30 8 0 31 8 0 32 8 0 
33 8 0 34 8 0 35 8 0 
36 8 0 37 8 0 38 8 0 
39 8 0 40 8 0 41 8 0 
42 8 0 43 8 0 44 8 0 
45 8 0 46 8 0 47 8 0 
48 8 0 49 8 0 50 8 0 
0 9 0 1 9 0 2 9 0 
3 9 0 4 9 0 5 9 0 
6 9 0 7 9 0 8 9 0 
9 9 0 10 9 0 11 9 0 
12 9 0 13 9 0 14 9 0 
15 9 0 16 9 0 17 9 0 
18 9 0 19 9 0 20 9 0 
21 9 0 22 9 0 23 9 0 
24 9 0 25 9 0 26 9 0 
27 9 0 28 9 0 29 9 0 
30 9 0 31 9 0 32 9 0 
33 9 0 34 9 0 35 9 0 
36 9 0 37 9 0 38 9 0 
39 9 0 40 9 0 41 9 0 
42 9 0 43 9 0 44 9 0 
45 9 0 46 9 0 47 9 0 
48 9 0 49 9 0 50 9 0 
0 10 0 1 10 0 2 10 0 
3 10 0 4 10 0 5 10 0 
6 10 0 7 10 0 8 10 0 
9 10 0 10 10 0 11 10 0 
12 10 0 13 10 0 14 10 0 
15 10 0 16 10 0 17 10 0 
18 10 0 19 10 0 20 10 0 
21 10 0 22 10 0 23 10 0 
24 10 0 25 10 0 26 10 0 
27 10 0 28 10 0 29 10 0 
30 10 0 31 10 0 32 10 0 
33 10 0 34 10 0 35 10 0 
36 10 0 37 10 0 38 10 0 
39 10 0 40 10 0 41 10 0 
42 10 0 43 10 0 44 10 0 
45 10 0 46 10 0 47 10 0 
48 10 0 49 10 0 50 10 0 
0 11 0 1 11 0 2 11 0 
3 11 0 4 11 0 5 11 0 
6 11 0 7 11 0 8 11 0 
9 11 0 10 11 0 11 11 0 
12 11 0 13 11 0 14 11 0 
15 11 0 16 11 0 17 11 0 
18 11 0 19 11 0 20 11 0 
21 11 0 22 11 0 23 11 0 
24 11 0 25 11 0 26 11 0 
27 11 0 28 11 0 29 11 0 
30 11 0 31 11 0 32 11 0 
33 11 0 34 11 0 35 11 0 
36 11 0 37 11 0 38 11 0 
39 11 0 40 11 0 41 11 0 
42 11 0 43 11 0 44 11 0 
45 11 0 46 11 0 47 11 0 
48 11 0 49 11 0 50 11 0 
0 12 0 1 12 0 2 12 0 
3 12 0 4 12 0 5 12 0 
6 12 0 7 12 0 8 12 0 
9 12 0 10 12 0 11 12 0 
12 12 0 13 12 0 14 12 0 
15 12 0 16 12 0 17 12 0 
18 12 0 19 12 0 20 12 0 
21 12 0 22 12 0 23 12 0 
24 12 0 25 12 0 26 12 0 
27 12 0 28 12 0 29 12 0 
30 12 0 31 12 0 32 12 0 
33 12 0 34 12 0 35 12 0 
36 12 0 37 12 0 38 12 0 
39 12 0 40 12 0 41 12 0 
42 12 0 43 12 0 44 12 0 
45 12 0 46 12 0 47 12 0 
48 12 0 49 12 0 50 12 0 
0 13 0 1 13 0 2 13 0 
3 13 0 4 13 0 5 13 0 
6 13 0 7 13 0 8 13 0 
9 13 0 10 13 0 11 13 0 
12 13 0 13 13 0 14 13 0 
15 13 0 16 13 0 17 13 0 
18 13 0 19 13 0 20 13 0 
21 13 0 22 13 0 23 13 0 
24 13 0 25 13 0 26 13 0 
27 13 0 28 13 0 29 13 0 
30 13 0 31 13 0 32 13 0 
33 13 0 34 13 0 35 13 0 
36 13 0 37 13 0 38 13 0 
39 13 0 40 13 0 41 13 0 
42 13 0 43 13 0 44 13 0 
45 13 0 46 13 0 47 13 0 
48 13 0 49 13 0 50 13 0 
0 14 0 1 14 0 2 14 0 
3 14 0 4 14 0 5 14 0 
6 14 0 7 14 0 8 14 0 
9 14 0 10 14 0 11 14 0 
12 14 0 13 14 0 14 14 0 
15 14 0 16 14 0 17 14 0 
18 14 0 19 14 0 20 14 0 
21 14 0 22 14 0 23 14 0 
24 14 0 25 14 0 26 14 0 
27 14 0 28 14 0 29 14 0 
30 14 0 31 14 0 32 14 0 
33 14 0 34 14 0 35 14 0 
36 14 0 37 14 0 38 14 0 
39 14 0 40 14 0 41 14 0 
42 14 0 43 14 0 44 14 0 
45 14 0 46 14 0 47 14 0 
48 14 0 49 14 0 50 14 0 
0 15 0 1 15 0 2 15 0 
3 15 0 4 15 0 5 15 0 
6 15 0 7 15 0 8 15 0 
9 15 0 10 15 0 11 15 0 
12 15 0 13 15 0 14 15 0 
15 15 0 16 15 0 17 15 0 
18 15 0 19 15 0 20 15 0 
21 15 0 22 15 0 23 15 0 
24 15 0 25 15 0 26 15 0 
27 15 0 28 15 0 29 15 0 
30 15 0 31 15 0 32 15 0 
33 15 0 34 15 0 35 15 0 
36 15 0 37 15 0 38 15 0 
39 15 0 40 15 0 41 15 0 
42 15 0 43 15 0 44 15 0 
45 15 0 46 15 0 47 15 0 
48 15 0 49 15 0 50 15 0 
0 16 0 1 16 0 2 16 0 
3 16 0 4 16 0 5 16 0 
6 16 0 7 16 0 8 16 0 
9 16 0 10 16 0 11 16 0 
12 16 0 13 16 0 14 16 0 
15 16 0 16 16 0 17 16 0 
18 16 0 19 16 0 20 16 0 
21 16 0 22 16 0 23 16 0 
24 16 0 25 16 0 26 16 0 
27 16 0 28 16 0 29 16 0 
30 16 0 31 16 0 32 16 0 
33 16 0 34 16 0 35 16 0 
36 16 0 37 16 0 38 16 0 
39 16 0 40 16 0 41 16 0 
42 16 0 43 16 0 44 16 0 
45 16 0 46 16 0 47 16 0 
48 16 0 49 16 0 50 16 0 
0 17 0 1 17 0 2 17 0 
3 17 0 4 17 0 5 17 0 
6 17 0 7 17 0 8 17 0 
9 17 0 10 17 0 11 17 0 
12 17 0 13 17 0 14 17 0 
15 17 0 16 17 0 17 17 0 
18 17 0 19 17 0 20 17 0 
21 17 0 22 17 0 23 17 0 
24 17 0 25 17 0 26 17 0 
27 17 0 28 17 0 29 17 0 
30 17 0 31 17 0 32 17 0 
33 17 0 34 17 0 35 17 0 
36 17 0 37 17 0 38 17 0 
39 17 0 40 17 0 41 17 0 
42 17 0 43 17 0 44 17 0 
45 17 0 46 17 0 47 17 0 
48 17 0 49 17 0 50 17 0 
0 18 0 1 18 0 2 18 0 
3 18 0 4 18 0 5 18 0 
6 18 0 7 18 0 8 18 0 
9 18 0 10 18 0 11 18 0 
12 18 0 13 18 0 14 18 0 
15 18 0 16 18 0 17 18 0 
18 18 0 19 18 0 20 18 0 
21 18 0 22 18 0 23 18 0 
24 18 0 25 18 0 26 18 0 
27 18 0 28 18 0 29 18 0 
30 18 0 31 18 0 32 18 0 
33 18 0 34 18 0 35 18 0 
36 18 0 37 18 0 38 18 0 
39 18 0 40 18 0 41 18 0 
42 18 0 43 18 0 44 18 0 
45 18 0 46 18 0 47 18 0 
48 18 0 49 18 0 50 18 0 
0 19 0 1 19 0 2 19 0 
3 19 0 4 19 0 5 19 0 
6 19 0 7 19 0 8 19 0 
9 19 0 10 19 0 11 19 0 
12 19 0 13 19 0 14 19 0 
15 19 0 16 19 0 17 19 0 
18 19 0 19 19 0 20 19 0 
21 19 0 22 19 0 23 19 0 
24 19 0 25 19 0 26 19 0 
27 19 0 28 19 0 29 19 0 
30 19 0 31 19 0 32 19 0 
33 19 0 34 19 0 35 19 0 
36 19 0 37 19 0 38 19 0 
39 19 0 40 19 0 41 19 0 
42 19 0 43 19 0 44 19 0 
45 19 0 46 19 0 47 19 0 
48 19 0 49 19 0 50 19 0 
0 20 0 1 20 0 2 20 0 
3 20 0 4 20 0 5 20 0 
6 20 0 7 20 0 8 20 0 
9 20 0 10 20 0 11 20 0 
12 20 0 13 20 0 14 20 0 
15 20 0 16 20 0 17 20 0 
18 20 0 19 20 0 20 20 0 
21 20 0 22 20 0 23 20 0 
24 20 0 25 20 0 26 20 0 
27 20 0 28 20 0 29 20 0 
30 20 0 31 20 0 32 20 0 
33 20 0 34 20 0 35 20 0 
36 20 0 37 20 0 38 20 0 
39 20 0 40 20 0 41 20 0 
42 20 0 43 20 0 44 20 0 
45 20 0 46 20 0 47 20 0 
48 20 0 49 20 0 50 20 0 
0 21 0 1 21 0 2 21 0 
3 21 0 4 21 0 5 21 0 
6 21 0 7 21 0 8 21 0 
9 21 0 10 21 0 11 21 0 
12 21 0 13 21 0 14 21 0 
15 21 0 16 21 0 17 21 0 
18 21 0 19 21 0 20 21 0 
21 21 0 22 21 0 23 21 0 
24 21 0 25 21 0 26 21 0 
27 21 0 28 21 0 29 21 0 
30 21 0 31 21 0 32 21 0 
33 21 0 34 21 0 35 21 0 
36 21 0 37 21 0 38 21 0 
39 21 0 40 21 0 41 21 0 
42 21 0 43 21 0 44 21 0 
45 21 0 46 21 0 47 21 0 
48 21 0 49 21 0 50 21 0 
0 22 0 1 22 0 2 22 0 
3 22 0 4 22 0 5 22 0 
6 22 0 7 22 0 8 22 0 
9 22 0 10 22 0 11 22 0 
12 22 0 13 22 0 14 22 0 
15 22 0 16 22 0 17 22 0 
18 22 0 19 22 0 20 22 0 
21 22 0 22 22 0 23 22 0 
24 22 0 25 22 0 26 22 0 
27 22 0 28 22 0 29 22 0 
30 22 0 31 22 0 32 22 0 
33 22 0 34 22 0 35 22 0 
36 22 0 37 22 0 38 22 0 
39 22 0 40 22 0 41 22 0 
42 22 0 43 22 0 44 22 0 
45 22 0 46 22 0 47 22 0 
48 22 0 49 22 0 50 22 0 
0 23 0 1 23 0 2 23 0 
3 23 0 4 23 0 5 23 0 
6 23 0 7 23 0 8 23 0 
9 23 0 10 23 0 11 23 0 
12 23 0 13 23 0 14 23 0 
15 23 0 16 23 0 17 23 0 
18 23 0 19 23 0 20 23 0 
21 23 0 22 23 0 23 23 0 
24 23 0 25 23 0 26 23 0 
27 23 0 28 23 0 29 23 0 
30 23 0 31 23 0 32 23 0 
33 23 0 34 23 0 35 23 0 
36 23 0 37 23 0 38 23 0 
39 23 0 40 23 0 41 23 0 
42 23 0 43 23 0 44 23 0 
45 23 0 46 23 0 47 23 0 
48 23 0 49 23 0 50 23 0 
0 24 0 1 24 0 2 24 0 
3 24 0 4 24 0 5 24 0 
6 24 0 7 24 0 8 24 0 
9 24 0 10 24 0 11 24 0 
12 24 0 13 24 0 14 24 0 
15 24 0 16 24 0 17 24 0 
18 24 0 19 24 0 20 24 0 
21 24 0 22 24 0 23 24 0 
24 24 0 25 24 0 26 24 0 
27 24 0 28 24 0 29 24 0 
30 24 0 31 24 0 32 24 0 
33 24 0 34 24 0 35 24 0 
36 24 0 37 24 0 38 24 0 
39 24 0 40 24 0 41 24 0 
42 24 0 43 24 0 44 24 0 
45 24 0 46 24 0 47 24 0 
48 24 0 49 24 0 50 24 0 
0 25 0 1 25 0 2 25 0 
3 25 0 4 25 0 5 25 0 
[...]
CELL_DATA 2500
SCALARS $\mu_{AB} double
LOOKUP_TABLE default
-0.00091506311391 -0.00064604728293 -0.00062131132648 -0.00076461186314 -0.00099457075047 -0.0013144686564 -0.0015473003954 -0.0015968170871 -0.001606665717 
-0.0016061626119 -0.001595934587 -0.0015503373212 -0.0013240786244 -0.0007568100396 -0.00069444048399 -0.00082031471847 -0.00093664505696 -0.00081510529654 
-0.00067750170914 -0.00067656223088 -0.00084833964837 -0.00098820015747 -0.0010340373639 -0.0010419829939 -0.0010087768408 -0.0009591535457 -0.00096708012348 
-0.0010273983585 -0.0010288804798 -0.0010195415243 -0.0010219393335 -0.0010357387388 -0.00097909678139 -0.00091547230245 -0.00089479374277 -0.00089587862361 
-0.00088872637052 -0.00089687846536 -0.00091009946432 -0.00092098692044 -0.00095145343759 -0.0010777474425 -0.0011673118202 -0.0012026615932 -0.001227660803 
-0.0012315838863 -0.0012209287741 -0.0011932650201 -0.0011685840737 -0.0011250659036 -0.0010773386799 -0.00092072872256 -0.00090912908879 -0.00096424749831 
-0.0010852279405 -0.0013396544439 -0.0015735410837 -0.0016336172707 -0.0016389605251 -0.0016178894293 -0.001585529789 -0.001538043743 -0.0013672209585 
-0.00096371103494 -0.00087968884987 -0.00099890647573 -0.0010631466702 -0.00099371178533 -0.00086383374811 -0.00082077629182 -0.0007901326235 -0.00089837795688 
-0.0010177761047 -0.0010449468822 -0.0010234338463 -0.0010025583029 -0.0010425177884 -0.0010498390214 -0.0010326269508 -0.0010170652121 -0.0010142889203 
-0.0010217241579 -0.00099866006792 -0.00094024576659 -0.00090306809681 -0.00089390277891 -0.00088551064149 -0.00088347166898 -0.00089143990814 -0.00089630022449 
-0.0009101849569 -0.00095787549194 -0.0011083123362 -0.0011931039943 -0.0012107253791 -0.0012113739059 -0.0012086751747 -0.001195496441 -0.0011881037598 
-0.0011690257007 -0.0010980831673 -0.00099607172636 -0.00097474903141 -0.00099547286271 -0.0010457407555 -0.0011603874186 -0.0014493691083 -0.0015924947838 
-0.0015945676716 -0.0015415303077 -0.0014893971694 -0.0014097193064 -0.0012974543535 -0.0011624012851 -0.0010595464916 -0.0011232862121 -0.0011827796415 
-0.0011195953296 -0.001052037149 -0.00087979249413 -0.00069397815248 -0.00069535054634 -0.00089103850218 -0.0010220301018 -0.0010599262851 -0.0010659716245 
-0.0010676730238 -0.0010603040032 -0.0010424483358 -0.0010193310693 -0.0010193852133 -0.0010348030134 -0.0010337407669 -0.00099879847634 -0.0009321610556 
-0.00091768506625 -0.00090519125722 -0.00089902089165 -0.00089123484962 -0.00089036378859 -0.0009027662754 -0.00092815423311 -0.0010573094177 -0.0011465426114 
-0.0011716060288 -0.0011756567658 -0.0011787897724 -0.001201335452 -0.0012065245758 -0.001192248049 -0.0010443116601 -0.0010071028054 -0.00098934663181 
-0.0010014018898 -0.0010306702242 -0.0010695698197 -0.0011880127602 -0.0013871054296 -0.0013809108978 -0.0012547969029 -0.0011566144896 -0.0010787745202 
-0.0011193627664 -0.0012372258275 -0.0013424172672 -0.0013645221635 -0.0013656668485 -0.0013232384763 -0.0011793941197 -0.00090335235183 -0.00069796389943 
-0.00068685100877 -0.00088082225931 -0.0010318584101 -0.0011190102723 -0.0010977013567 -0.0010613416643 -0.0010420933533 -0.0010072496452 -0.0009794893385 
-0.0010094445585 -0.0010399037896 -0.0010522430971 -0.0010571703562 -0.00097203439083 -0.00094215175665 -0.00092832728629 -0.0009218770376 -0.0009031121307 
-0.00089733342259 -0.00091073583475 -0.00095044883169 -0.001056623976 -0.0011008658881 -0.0011415008159 -0.0011548248552 -0.0011718462101 -0.0011991027256 
-0.0012117176301 -0.0011768347131 -0.0010541648167 -0.0010319007961 -0.0010087481251 -0.0010063568907 -0.001017379046 -0.0010323053524 -0.0010540700382 
-0.001090580269 -0.0010396687363 -0.0010234246845 -0.0010015484781 -0.00098445516438 -0.0010130344819 -0.0011665834311 -0.0014650257897 -0.0016070181894 
-0.001580201071 -0.0014488947912 -0.0012913969811 -0.0010415753545 -0.00078653840939 -0.00083178800006 -0.0010400272682 -0.0011532813806 -0.0012162006284 
-0.0011565204128 -0.0010379125596 -0.0010003771236 -0.00094814704814 -0.00093444207433 -0.00097552378999 -0.0010226696754 -0.0010672618073 -0.001134752698 
-0.0010526933022 -0.00095982059548 -0.00093667132067 -0.00092151488489 -0.00091047594256 -0.00091227867251 -0.00094320352063 -0.0010603716046 -0.0010830642798 
-0.0010928674135 -0.0011168887195 -0.0011438666737 -0.0011707901891 -0.0012030102897 -0.0012094614899 -0.0011286821727 -0.0010704986455 -0.0010498524008 
-0.0010297132198 -0.00098975697943 -0.00098624831119 -0.0009980490194 -0.0010005282227 -0.0009772927895 -0.00096346515621 -0.00095925038845 -0.00096199499431 
-0.0009643769148 -0.00099693753894 -0.0010724691853 -0.0014110689796 -0.0016143209616 -0.0015587373784 -0.0013896901143 -0.0012280287887 -0.00099161105457 
-0.00081162716284 -0.0010318374017 -0.0012166374558 -0.0013287071438 -0.0013571369374 -0.0012654550201 -0.0010739895627 -0.00097455982129 -0.00091813452886 
-0.00090777379993 -0.00094735134376 -0.001010135518 -0.0011402459361 -0.001213414151 -0.0011471765015 -0.0010145129307 -0.0009494426205 -0.00092958989044 
-0.00092323712068 -0.0009458993809 -0.0010703858239 -0.0011093347511 -0.0011010931275 -0.0011033717688 -0.0011239128963 -0.001142034563 -0.0011744507166 
-0.0012154333318 -0.0012169783442 -0.0011315721883 -0.0010727455182 -0.0010474940538 -0.0010172433018 -0.00098545322173 -0.00097305224249 -0.00097868178828 
-0.0009852791812 -0.00097379041614 -0.0009697239328 -0.00097600323389 -0.00099590134474 -0.00099020768964 -0.0010070166495 -0.0010550742553 -0.0013108513098 
-0.0014990725688 -0.0014314632859 -0.0011730753517 -0.00099944427338 -0.00076534525904 -0.000724183551 -0.0009810868102 -0.0012313666174 -0.0013564973577 
-0.0013953145665 -0.001297953589 -0.0011186764925 -0.0010130206423 -0.00094536956829 -0.00092734928757 -0.0009620477579 -0.0010454574424 -0.0011694230808 
-0.001203966893 -0.0011289679082 -0.0010410508666 -0.0010012126113 -0.00096753041188 -0.00097035919923 -0.0010686775621 -0.0011375588454 -0.0011443247985 
-0.0011263989386 -0.0011240703149 -0.0011444792138 -0.0011605445136 -0.0011755803032 -0.0012112254669 -0.00122477567 -0.0011609263349 -0.0010812017286 
-0.0010399966259 -0.0010119538355 -0.00099020187538 -0.00098486620168 -0.001001084614 -0.0010256181461 -0.0010085611837 -0.0010036432722 -0.0010191932131 
-0.0010311936165 -0.0010215012203 -0.0010223024099 -0.0010588744702 -0.0012407722932 -0.001344762179 -0.0013081502957 -0.0011368950061 -0.00089114702149 
-0.00066089900841 -0.00066960996493 -0.00088683523889 -0.0011580167305 -0.0013045111448 -0.0013409518403 -0.0012246258187 -0.001090655991 -0.0010373976627 
-0.00098519188324 -0.00096846411654 -0.000997274904 -0.0010306932464 -0.0011063176486 -0.0010891328639 -0.0010134109262 -0.001009592502 -0.0010211592062 
-0.0010264587298 -0.0010407029503 -0.0011182390993 -0.001153689079 -0.0011529611931 -0.0011344477813 -0.001126937577 -0.0011438860025 -0.0011550808095 
-0.001151885576 -0.0011602003216 -0.0012059377924 -0.001169108182 -0.0010324839041 -0.0010041739948 -0.0010082271243 -0.0010140508451 -0.0010719066393 
-0.0011313586015 -0.0011129415984 -0.0010656464392 -0.0010361642138 -0.0010466931709 -0.0010512190834 -0.0010414600629 -0.0010395226256 -0.0010966775175 
-0.0011982026717 -0.001237995609 -0.0012344522272 -0.0011757634035 -0.00099290268145 -0.00071011585047 -0.00069326370108 -0.00089331676003 -0.0011113786658 
-0.0012126636484 -0.001231825549 -0.0011396654573 -0.0010965832674 -0.0010636944959 -0.0010225405485 -0.0010105911141 -0.0010415479512 -0.0010515862106 
-0.0010476628551 -0.00099307509321 -0.00098083219937 -0.00099746158361 -0.001017949218 -0.0010264971388 -0.0010314044811 -0.0010804958849 -0.0011326658531 
-0.0011336386936 -0.0011133479697 -0.0011071310592 -0.0011182264015 -0.0011134521842 -0.0010652034805 -0.0011084460764 -0.0011735677092 -0.0011400200738 
-0.00091470431747 -0.00090103004969 -0.00097771047357 -0.0010598253299 -0.0011537735994 -0.0011960623077 -0.0011731810686 -0.0011245424062 -0.0010713558122 
-0.0010538991122 -0.0010516750876 -0.0010414556233 -0.0010540508934 -0.0011313587171 -0.0011823118269 -0.0012166911009 -0.0012202165792 -0.0011879063126 
-0.0011144943064 -0.00093009499342 -0.0008562256699 -0.00092703825076 -0.0010013981958 -0.0010444021801 -0.0011004348476 -0.0010870990209 -0.0010765683501 
-0.0010585603358 -0.0010494669323 -0.0010677167342 -0.0010808922808 -0.0010802932972 -0.0010288541629 -0.00097590470166 -0.00096911708988 -0.0009806499045 
-0.0010081114043 -0.0010060885007 -0.0010062626301 -0.0010222318213 -0.0010822676754 -0.0011075729702 -0.0010897596713 -0.0010828070401 -0.0010828941016 
-0.00098740767772 -0.00093213134056 -0.00098758450218 -0.0010688110279 -0.0010272854132 -0.00083275095466 -0.00082614276785 -0.00094920805106 -0.0010348967018 
-0.0011392246042 -0.0011840458778 -0.0011602552662 -0.0011354537569 -0.0010809002601 -0.0010397534933 -0.0010156087722 -0.00099262183323 -0.0010110706666 
-0.0011101424095 -0.0011479999602 -0.0011897517218 -0.0011997725014 -0.0011648514858 -0.0010879674034 -0.00092857386678 -0.00086069876384 -0.00091982044509 
-0.00097531078809 -0.00098992145874 -0.00099584637128 -0.0010312017923 -0.0010413912465 -0.0010360640351 -0.0010445250197 -0.0010772845498 -0.0010987408131 
-0.0010973886972 -0.0010297233726 -0.00099197340371 -0.00098427524378 -0.00098718875841 -0.00097082468241 -0.00096800511216 -0.00096968691275 -0.00097588367122 
-0.0010048639922 -0.0010225903331 -0.0010305603973 -0.0010262423418 -0.00097794255237 -0.00084278019386 -0.00082298645456 -0.00087854628056 -0.00095257500605 
-0.00091354989018 -0.00086691643987 -0.00084537040558 -0.00088797361062 -0.00094529568193 -0.0010562641045 -0.0011117083747 -0.0010749690794 -0.0010666078539 
-0.0010359932544 -0.00099444037117 -0.00098501988966 -0.00095895527297 -0.00093761730405 -0.0010283223979 -0.0011021595881 -0.0011546833594 -0.0011691751744 
-0.0011380837838 -0.0010317865394 -0.00086590252636 -0.00081982965944 -0.0008731394285 -0.0009480285228 -0.00095476447594 -0.00094795286634 -0.00096416138044 
-0.0010101124547 -0.0010180042302 -0.0010339852506 -0.0010676358666 -0.0010977783611 -0.0011081555681 -0.001062520299 -0.0010215033638 -0.0010101455475 
-0.001000027371 -0.00096259395461 -0.00094415058149 -0.00094194468864 -0.00094345403392 -0.00094025666891 -0.00092179353794 -0.00090173103203 -0.00088729888068 
-0.00088100372592 -0.00082866859358 -0.00082841716721 -0.00089689098304 -0.0010072875518 -0.00097542156949 -0.0010188506008 -0.00096500794326 -0.00092282052927 
-0.00092822915543 -0.00096499833919 -0.00097088543352 -0.00097698743386 -0.00097869274366 -0.00097848304437 -0.00097611417191 -0.0009706495082 -0.00093767117677 
-0.00089971258608 -0.00092694105203 -0.0010570482564 -0.0011419706743 -0.0011717013998 -0.0011375980355 -0.0010113033475 -0.000845964852 -0.00080897701506 
-0.00084210465769 -0.00093653341311 -0.00093028612877 -0.00091601055735 -0.00091856762069 -0.00094879551449 -0.00098333857833 -0.0010124384515 -0.0010535585852 
-0.0010965040674 -0.0011410370335 -0.001130510025 -0.0010577837084 -0.0010294464535 -0.0010071875054 -0.00097289264871 -0.00094454517122 -0.00093728040845 
-0.00093216654727 -0.00092564997541 -0.00090932916376 -0.00088628693424 -0.00086942938858 -0.00087144983699 -0.00089118796987 -0.00094321641472 -0.0010192940827 
-0.001124607558 -0.0011222500538 -0.0012411399298 -0.0012491518631 -0.0010959861251 -0.0010440310352 -0.0010050403963 -0.00094577892205 -0.00092798733471 
-0.00093543036427 -0.0009541641278 -0.00095902324048 -0.00096231438511 -0.00091245507529 -0.00085392605595 -0.00085797985827 -0.00097094678242 -0.0011200425112 
-0.0011651058734 -0.0011352306668 -0.0009793152497 -0.00086285008859 -0.00086445386879 -0.00093169729534 -0.0009695157955 -0.00093864785189 -0.00091680466627 
-0.0009078652779 -0.00089315169741 -0.00088137180643 -0.0009130977698 -0.00097468240047 -0.0010489079067 -0.0011345870153 -0.0011699353572 -0.0011260099452 
-0.0010535159637 -0.0010142194302 -0.00097564547853 -0.00094567977255 -0.00093353090103 -0.00092996865114 -0.00092676812942 -0.0009144867534 -0.00088461526425 
-0.00086962124021 -0.0008787042599 -0.00089830696124 -0.0010170564896 -0.0011171480562 -0.0012428713036 -0.0012717599981 -0.0017784793167 -0.0018638471637 
-0.0015493003354 -0.0013309898566 -0.0012131504763 -0.0010806479613 -0.0010076817259 -0.00098079971506 -0.00095379621546 -0.00095301526823 -0.00095792468675 
-0.00090731448993 -0.00085270622609 -0.00083710068761 -0.00087913866179 -0.001064470287 -0.0011319906988 -0.0010971623066 -0.00098356395311 -0.00092105328385 
-0.00094064433741 -0.00099359771973 -0.0010056079224 -0.00097494362735 -0.00094946375697 -0.00091150775376 -0.00088013224718 -0.00086691818712 -0.00089913357018 
-0.00095973998563 -0.0010172622352 -0.0010708514319 -0.0011403456888 -0.0011286695752 -0.0010718031322 -0.0010223326924 -0.0009765603401 -0.00094213587042 
-0.00092520415139 -0.00092214531609 -0.00092008497222 -0.0009161913789 -0.00088998876946 -0.00088783259472 -0.00090042599845 -0.00092212340484 -0.0010521643389 
-0.0012336359185 -0.0013727696852 -0.0015277119177 -0.0020994147738 -0.0023273360813 -0.0022792356697 -0.0019221637006 -0.0015860573053 -0.0013460579041 
-0.0012566378257 -0.001099976093 -0.00097883907589 -0.000965275332 -0.00097247156353 -0.00095195607462 -0.00090218638437 -0.00086739438972 -0.00087977322094 
-0.00096495662962 -0.0010042181182 -0.00099751146995 -0.00097487673903 -0.00096098263748 -0.00097422638743 -0.0010220721155 -0.0010282139242 -0.00099496452139 
-0.00096545159274 -0.00091693210612 -0.00090240979012 -0.00088150628625 -0.00090445116783 -0.00097694926683 -0.0010192231304 -0.0010389308434 -0.0010687023512 
-0.0010520843822 -0.0010195058929 -0.00099964971657 -0.00095767905098 -0.00092219045476 -0.0009094251024 -0.00090764871459 -0.00090628764705 -0.00090172997517 
-0.00090746032568 -0.00091319444534 -0.00091894251442 -0.00094038077346 -0.0010768282503 -0.001292207096 -0.0014922768182 -0.0017645589267 -0.0019471065469 
-0.0024157981901 -0.0026219495454 -0.0025315010949 -0.0022435978065 -0.0018852440212 -0.0015295863139 -0.0012343704035 -0.0010375520175 -0.00099005607741 
-0.00099710930413 -0.00098823336714 -0.00095037876445 -0.00091289168084 -0.00090269331296 -0.00089982300536 -0.00089622456216 -0.00090832534255 -0.00093642759233 
-0.00097197971675 -0.0010076969825 -0.0010410920094 -0.0010477244819 -0.0010325408217 -0.0010038346159 -0.0009686941237 -0.0009582156903 -0.00093342791651 
-0.0009256135462 -0.0009816533578 -0.00099894220207 -0.0010074455607 -0.0010018861056 -0.00097836187267 -0.00099584109641 -0.00098801034305 -0.00094774989085 
-0.00090436274216 -0.00089296403375 -0.00089786868055 -0.00089836993715 -0.00089997122457 -0.00090784422363 -0.00091675319518 -0.00092394051199 -0.00093652624639 
-0.0010049287249 -0.0010683820757 -0.0011579745302 -0.0014561135516 -0.0014198995035 -0.0020127814862 -0.0025156832149 -0.0025982131459 -0.0023604892829 
-0.0018935409811 -0.001366346666 -0.0011303489116 -0.0010694501776 -0.0010304265523 -0.0010140643853 -0.0010059642911 -0.00097423983372 -0.00094087181448 
-0.00090881477845 -0.00088795416764 -0.0008823133853 -0.00089555826 -0.00092194181909 -0.00095212390193 -0.0010142480263 -0.0010651361501 -0.0010821936399 
-0.0010784701821 -0.0010554626993 -0.001018848365 -0.0010064192186 -0.00099291776061 -0.0009610716563 -0.00093799839186 -0.00095588210576 -0.00095798338717 
-0.00093241379037 -0.00092586491985 -0.00095459753468 -0.00095772311024 -0.00091453904707 -0.00088182656163 -0.0008780901836 -0.00090035415088 -0.00091205223465 
-0.00091761631837 -0.0009245291634 -0.00092716249461 -0.00092541031517 -0.00088896819411 -0.0008148377248 -0.00076121504024 -0.00088160137654 -0.0011119914025 
-0.0011099363297 -0.0014056513682 -0.0020078179643 -0.0022725955732 -0.0019910155254 -0.0012779914951 -0.00103878038 -0.0010491877737 -0.0010682690111 
-0.0010925845604 -0.0010846219354 -0.001081269416 -0.0010475785608 -0.00095501675195 -0.00092242153779 -0.00089672139288 -0.0008868721775 -0.00090399079801 
-0.00093064284686 -0.00095051800349 -0.00098894725346 -0.0010582251091 -0.0010831141437 -0.0010946444328 -0.0010967648028 -0.0010587881435 -0.0010246224375 
-0.00099549286303 -0.0009543755295 -0.00092364644082 -0.00092255505922 -0.00091678212672 -0.00087512824348 -0.00087363374977 -0.0009025759966 -0.00093055365812 
-0.00090687122857 -0.00089457057248 -0.00089650535373 -0.00094185440603 -0.0010191638124 -0.0010076576316 -0.00099228885782 -0.00097859482187 -0.00093993027154 
-0.00081338755241 -0.00071483341745 -0.00069135886034 -0.00077195835171 -0.00093964666489 -0.00089312662314 -0.001040622294 -0.0013519056018 -0.001680606854 
-0.0011605434959 -0.00077972108819 -0.00085019785506 -0.00097113525 -0.0010576071488 -0.0011159211155 -0.0011369986126 -0.0011735675467 -0.0011323202327 
-0.00098509680708 -0.00095204234044 -0.00091786879704 -0.0009016152478 -0.00092649156664 -0.00094754876301 -0.00096559283605 -0.00098682524237 -0.0010578487515 
-0.0010793564832 -0.0010951566063 -0.0011064692669 -0.0011025892634 -0.0010542307993 -0.0010016355884 -0.00095471542929 -0.00092247243751 -0.00091790756555 
-0.00089745728486 -0.00085577236264 -0.00085543370535 -0.00088796994604 -0.00095098922945 -0.00097502154781 -0.00094726159459 -0.0009559560385 -0.0010498529264 
-0.0012159022573 -0.0012877292289 -0.0012590457454 -0.0011579144916 -0.0010114496471 -0.00080857580388 -0.00076117847024 -0.00071576901749 -0.00073702052981 
-0.00088146867095 -0.00069545899297 -0.00078795474125 -0.00094194164268 -0.0010625041831 -0.00050929663516 -0.00039138735611 -0.00054657814397 -0.0008374976187 
-0.0010404010611 -0.0011267002628 -0.0011727862993 -0.0012597795133 -0.0012533529014 -0.0010302074091 -0.00097008591757 -0.00092737457589 -0.00090596567045 
-0.00092568389856 -0.00094973627077 -0.00097069740241 -0.0010069233581 -0.0010650216675 -0.0010775450628 -0.0010915653086 -0.0011062465945 -0.0011084409966 
-0.0010967273958 -0.0010363915621 -0.00096977147787 -0.00094608085239 -0.00095862255377 -0.00093854637972 -0.00088708391988 -0.00088401209723 -0.00092525655995 
-0.00098341450526 -0.0010147560062 -0.0010062284352 -0.0010302758581 -0.0011926072163 -0.001316196256 -0.0013479675756 -0.0013098352149 -0.0012169719621 
-0.0011072201994 -0.00091616731183 -0.00088211700514 -0.00085113037912 -0.00084460769088 -0.00071586052128 -0.00067054137631 -0.00073705839919 -0.0010304026073 
-0.00096074270739 -0.00043412948745 -0.00015598685045 -0.00013146278584 -0.00038269037535 -0.00082263902356 -0.0010569609529 -0.001161431358 -0.0013810994752 
-0.0014386285159 -0.0011474879739 -0.0009724803643 -0.000914181353 -0.00089138909503 -0.00090494497885 -0.00093608348947 -0.0009655244922 -0.001047787922 
-0.0010785345775 -0.001085098715 -0.0010901877537 -0.0011033853865 -0.0011023927652 -0.0010948211877 -0.0010585779223 -0.00098575602988 -0.00097967259129 
-0.0010004084062 -0.00098099950405 -0.00092752793059 -0.00090902638616 -0.00094605762189 -0.0010052827673 -0.0010381768412 -0.0010426943188 -0.0011237864021 
-0.0012514781127 -0.0012859834816 -0.0013074330603 -0.0012769494587 -0.0011984014676 -0.0011441807678 -0.0010358397545 -0.00099889469741 -0.00099528414462 
-0.00094195681035 -0.00074907793345 -0.00079872791007 -0.0010494978635 -0.0015165113546 -0.0013125498101 -0.00074368450323 -0.00022882883016 -3.5412275721e-05 
-0.0002277121208 -0.00058532283522 -0.00090659220733 -0.0011568422838 -0.0015656402999 -0.0016168410963 -0.0013582368884 -0.0010063379907 -0.00090090711891 
-0.00087730740113 -0.00089583424654 -0.00093580389205 -0.0010032450816 -0.00109440411 -0.0011039691902 -0.0011042983775 -0.0011036713278 -0.0010939184198 
-0.0010907549635 -0.0010789933767 -0.0010165589487 -0.00094067209519 -0.00096900677836 -0.00099771549804 -0.00097744890954 -0.00091562226306 -0.00089868336974 