# vtk DataFile Version 4.2
vtk output
ASCII
DATASET UNSTRUCTURED_GRID
POINTS 2601 double
0 0 0 1 0 0 2 0 0 
3 0 0 4 0 0 5 0 0 
6 0 0 7 0 0 8 0 0 
9 0 0 10 0 0 11 0 0 
12 0 0 13 0 0 14 0 0 
15 0 0 16 0 0 17 0 0 
18 0 0 19 0 0 20 0 0 
21 0 0 22 0 0 23 0 0 
24 0 0 25 0 0 26 0 0 
27 0 0 28 0 0 29 0 0 
30 0 0 31 0 0 32 0 0 
33 0 0 34 0 0 35 0 0 
36 0 0 37 0 0 38 0 0 
39 0 0 40 0 0 41 0 0 
42 0 0 43 0 0 44 0 0 
45 0 0 46 0 0 47 0 0 
48 0 0 49 0 0 50 0 0 
0 1 0 1 1 0 2 1 0 
3 1 0 4 1 0 5 1 0 
6 1 0 7 1 0 8 1 0 
9 1 0 10 1 0 11 1 0 
12 1 0 13 1 0 14 1 0 
15 1 0 16 1 0 17 1 0 
18 1 0 19 1 0 20 1 0 
21 1 0 22 1 0 23 1 0 
24 1 0 25 1 0 26 1 0 
27 1 0 28 1 0 29 1 0 
30 1 0 31 1 0 32 1 0 
33 1 0 34 1 0 35 1 0 
36 1 0 37 1 0 38 1 0 
39 1 0 40 1 0 41 1 0 
42 1 0 43 1 0 44 1 0 
45 1 0 46 1 0 47 1 0 
48 1 0 49 1 0 50 1 0 
0 2 0 1 2 0 2 2 0 
3 2 0 4 2 0 5 2 0 
6 2 0 7 2 0 8 2 0 
9 2 0 10 2 0 11 2 0 
12 2 0 13 2 0 14 2 0 
15 2 0 16 2 0 17 2 0 
18 2 0 19 2 0 20 2 0 
21 2 0 22 2 0 23 2 0 
24 2 0 25 2 0 26 2 0 
27 2 0 28 2 0 29 2 0 
30 2 0 31 2 0 32 2 0 
33 2 0 34 2 0 35 2 0 
36 2 0 37 2 0 38 2 0 
39 2 0 40 2 0 41 2 0 
42 2 0 43 2 0 44 2 0 
45 2 0 46 2 0 47 2 0 
48 2 0 49 2 0 50 2 0 
0 3 0 1 3 0 2 3 0 
3 3 0 4 3 0 5 3 0 
6 3 0 7 3 0 8 3 0 
9 3 0 10 3 0 11 3 0 
12 3 0 13 3 0 14 3 0 
15 3 0 16 3 0 17 3 0 
18 3 0 19 3 0 20 3 0 
21 3 0 22 3 0 23 3 0 
24 3 0 25 3 0 26 3 0 
27 3 0 28 3 0 29 3 0 
30 3 0 31 3 0 32 3 0 
33 3 0 34 3 0 35 3 0 
36 3 0 37 3 0 38 3 0 
39 3 0 40 3 0 41 3 0 
42 3 0 43 3 0 44 3 0 
45 3 0 46 3 0 47 3 0 
48 3 0 49 3 0 50 3 0 
0 4 0 1 4 0 2 4 0 
3 4 0 4 4 0 5 4 0 
6 4 0 7 4 0 8 4 0 
9 4 0 10 4 0 11 4 0 
12 4 0 13 4 0 14 4 0 
15 4 0 16 4 0 17 4 0 
18 4 0 19 4 0 20 4 0 
21 4 0 22 4 0 23 4 0 
24 4 0 25 4 0 26 4 0 
27 4 0 28 4 0 29 4 0 
30 4 0 31 4 0 32 4 0 
33 4 0 34 4 0 35 4 0 
36 4 0 37 4 0 38 4 0 
39 4 0 40 4 0 41 4 0 
42 4 0 43 4 0 44 4 0 
45 4 0 46 4 0 47 4 0 
48 4 0 49 4 0 50 4 0 
0 5 0 1 5 0 2 5 0 
3 5 0 4 5 0 5 5 0 
6 5 0 7 5 0 8 5 0 
9 5 0 10 5 0 11 5 0 
12 5 0 13 5 0 14 5 0 
15 5 0 16 5 0 17 5 0 
18 5 0 19 5 0 20 5 0 
21 5 0 22 5 0 23 5 0 
24 5 0 25 5 0 26 5 0 
27 5 0 28 5 0 29 5 0 
30 5 0 31 5 0 32 5 0 
33 5 0 34 5 0 35 5 0 
36 5 0 37 5 0 38 5 0 
39 5 0 40 5 0 41 5 0 
42 5 0 43 5 0 44 5 0 
45 5 0 46 5 0 47 5 0 
48 5 0 49 5 0 50 5 0 
0 6 0 1 6 0 2 6 0 
3 6 0 4 6 0 5 6 0 
6 6 0 7 6 0 8 6 0 
9 6 0 10 6 0 11 6 0 
12 6 0 13 6 0 14 6 0 
15 6 0 16 6 0 17 6 0 
18 6 0 19 6 0 20 6 0 
21 6 0 22 6 0 23 6 0 
24 6 0 25 6 0 26 6 0 
27 6 0 28 6 0 29 6 0 
30 6 0 31 6 0 32 6 0 
33 6 0 34 6 0 35 6 0 
36 6 0 37 6 0 38 6 0 
39 6 0 40 6 0 41 6 0 
42 6 0 43 6 0 44 6 0 
45 6 0 46 6 0 47 6 0 
48 6 0 49 6 0 50 6 0 
0 7 0 1 7 0 2 7 0 
3 7 0 4 7 0 5 7 0 
6 7 0 7 7 0 8 7 0 
9 7 0 10 7 0 11 7 0 
12 7 0 13 7 0 14 7 0 
15 7 0 16 7 0 17 7 0 
18 7 0 19 7 0 20 7 0 
21 7 0 22 7 0 23 7 0 
24 7 0 25 7 0 26 7 0 
27 7 0 28 7 0 29 7 0 
30 7 0 31 7 0 32 7 0 
33 7 0 34 7 0 35 7 0 
36 7 0 37 7 0 38 7 0 
39 7 0 40 7 0 41 7 0 
42 7 0 43 7 0 44 7 0 
45 7 0 46 7 0 47 7 0 
48 7 0 49 7 0 50 7 0 
0 8 0 1 8 0 2 8 0 
3 8 0 4 8 0 5 8 0 
6 8 0 7 8 0 8 8 0 
9 8 0 10 8 0 11 8 0 
12 8 0 13 8 0 14 8 0 
15 8 0 16 8 0 17 8 0 
18 8 0 19 8 0 20 8 0 
21 8 0 22 8 0 23 8 0 
24 8 0 25 8 0 26 8 0 
27 8 0 28 8 0 29 8 0 
30 8 0 31 8 0 32 8 0 
33 8 0 34 8 0 35 8 0 
36 8 0 37 8 0 38 8 0 
39 8 0 40 8 0 41 8 0 
42 8 0 43 8 0 44 8 0 
45 8 0 46 8 0 47 8 0 
48 8 0 49 8 0 50 8 0 
0 9 0 1 9 0 2 9 0 
3 9 0 4 9 0 5 9 0 
6 9 0 7 9 0 8 9 0 
9 9 0 10 9 0 11 9 0 
12 9 0 13 9 0 14 9 0 
15 9 0 16 9 0 17 9 0 
18 9 0 19 9 0 20 9 0 
21 9 0 22 9 0 23 9 0 
24 9 0 25 9 0 26 9 0 
27 9 0 28 9 0 29 9 0 
30 9 0 31 9 0 32 9 0 
33 9 0 34 9 0 35 9 0 
36 9 0 37 9 0 38 9 0 
39 9 0 40 9 0 41 9 0 
42 9 0 43 9 0 44 9 0 
45 9 0 46 9 0 47 9 0 
48 9 0 49 9 0 50 9 0 
0 10 0 1 10 0 2 10 0 
3 10 0 4 10 0 5 10 0 
6 10 0 7 10 0 8 10 0 
9 10 0 10 10 0 11 10 0 
12 10 0 13 10 0 14 10 0 
15 10 0 16 10 0 17 10 0 
18 10 0 19 10 0 20 10 0 
21 10 0 22 10 0 23 10 0 
24 10 0 25 10 0 26 10 0 
27 10 0 28 10 0 29 10 0 
30 10 0 31 10 0 32 10 0 
33 10 0 34 10 0 35 10 0 
36 10 0 37 10 0 38 10 0 
39 10 0 40 10 0 41 10 0 
42 10 0 43 10 0 44 10 0 
45 10 0 46 10 0 47 10 0 
48 10 0 49 10 0 50 10 0 
0 11 0 1 11 0 2 11 0 
3 11 0 4 11 0 5 11 0 
6 11 0 7 11 0 8 11 0 
9 11 0 10 11 0 11 11 0 
12 11 0 13 11 0 14 11 0 
15 11 0 16 11 0 17 11 0 
18 11 0 19 11 0 20 11 0 
21 11 0 22 11 0 23 11 0 
24 11 0 25 11 0 26 11 0 
27 11 0 28 11 0 29 11 0 
30 11 0 31 11 0 32 11 0 
33 11 0 34 11 0 35 11 0 
36 11 0 37 11 0 38 11 0 
39 11 0 40 11 0 41 11 0 
42 11 0 43 11 0 44 11 0 
45 11 0 46 11 0 47 11 0 
48 11 0 49 11 0 50 11 0 
0 12 0 1 12 0 2 12 0 
3 12 0 4 12 0 5 12 0 
6 12 0 7 12 0 8 12 0 
9 12 0 10 12 0 11 12 0 
12 12 0 13 12 0 14 12 0 
15 12 0 16 12 0 17 12 0 
18 12 0 19 12 0 20 12 0 
21 12 0 22 12 0 23 12 0 
24 12 0 25 12 0 26 12 0 
27 12 0 28 12 0 29 12 0 
30 12 0 31 12 0 32 12 0 
33 12 0 34 12 0 35 12 0 
36 12 0 37 12 0 38 12 0 
39 12 0 40 12 0 41 12 0 
42 12 0 43 12 0 44 12 0 
45 12 0 46 12 0 47 12 0 
48 12 0 49 12 0 50 12 0 
0 13 0 1 13 0 2 13 0 
3 13 0 4 13 0 5 13 0 
6 13 0 7 13 0 8 13 0 
9 13 0 10 13 0 11 13 0 
12 13 0 13 13 0 14 13 0 
15 13 0 16 13 0 17 13 0 
18 13 0 19 13 0 20 13 0 
21 13 0 22 13 0 23 13 0 
24 13 0 25 13 0 26 13 0 
27 13 0 28 13 0 29 13 0 
30 13 0 31 13 0 32 13 0 
33 13 0 34 13 0 35 13 0 
36 13 0 37 13 0 38 13 0 
39 13 0 40 13 0 41 13 0 
42 13 0 43 13 0 44 13 0 
45 13 0 46 13 0 47 13 0 
48 13 0 49 13 0 50 13 0 
0 14 0 1 14 0 2 14 0 
3 14 0 4 14 0 5 14 0 
6 14 0 7 14 0 8 14 0 
9 14 0 10 14 0 11 14 0 
12 14 0 13 14 0 14 14 0 
15 14 0 16 14 0 17 14 0 
18 14 0 19 14 0 20 14 0 
21 14 0 22 14 0 23 14 0 
24 14 0 25 14 0 26 14 0 
27 14 0 28 14 0 29 14 0 
30 14 0 31 14 0 32 14 0 
33 14 0 34 14 0 35 14 0 
36 14 0 37 14 0 38 14 0 
39 14 0 40 14 0 41 14 0 
42 14 0 43 14 0 44 14 0 
45 14 0 46 14 0 47 14 0 
48 14 0 49 14 0 50 14 0 
0 15 0 1 15 0 2 15 0 
3 15 0 4 15 0 5 15 0 
6 15 0 7 15 0 8 15 0 
9 15 0 10 15 0 11 15 0 
12 15 0 13 15 0 14 15 0 
15 15 0 16 15 0 17 15 0 
18 15 0 19 15 0 20 15 0 
21 15 0 22 15 0 23 15 0 
24 15 0 25 15 0 26 15 0 
27 15 0 28 15 0 29 15 0 
30 15 0 31 15 0 32 15 0 
33 15 0 34 15 0 35 15 0 
36 15 0 37 15 0 38 15 0 
39 15 0 40 15 0 41 15 0 
42 15 0 43 15 0 44 15 0 
45 15 0 46 15 0 47 15 0 
48 15 0 49 15 0 50 15 0 
0 16 0 1 16 0 2 16 0 
3 16 0 4 16 0 5 16 0 
6 16 0 7 16 0 8 16 0 
9 16 0 10 16 0 11 16 0 
12 16 0 13 16 0 14 16 0 
15 16 0 16 16 0 17 16 0 
18 16 0 19 16 0 20 16 0 
21 16 0 22 16 0 23 16 0 
24 16 0 25 16 0 26 16 0 
27 16 0 28 16 0 29 16 0 
30 16 0 31 16 0 32 16 0 
33 16 0 34 16 0 35 16 0 
36 16 0 37 16 0 38 16 0 
39 16 0 40 16 0 41 16 0 
42 16 0 43 16 0 44 16 0 
45 16 0 46 16 0 47 16 0 
48 16 0 49 16 0 50 16 0 
0 17 0 1 17 0 2 17 0 
3 17 0 4 17 0 5 17 0 
6 17 0 7 17 0 8 17 0 
9 17 0 10 17 0 11 17 0 
12 17 0 13 17 0 14 17 0 
15 17 0 16 17 0 17 17 0 
18 17 0 19 17 0 20 17 0 
21 17 0 22 17 0 23 17 0 
24 17 0 25 17 0 26 17 0 
27 17 0 28 17 0 29 17 0 
30 17 0 31 17 0 32 17 0 
33 17 0 34 17 0 35 17 0 
36 17 0 37 17 0 38 17 0 
39 17 0 40 17 0 41 17 0 
42 17 0 43 17 0 44 17 0 
45 17 0 46 17 0 47 17 0 
48 17 0 49 17 0 50 17 0 
0 18 0 1 18 0 2 18 0 
3 18 0 4 18 0 5 18 0 
6 18 0 7 18 0 8 18 0 
9 18 0 10 18 0 11 18 0 
12 18 0 13 18 0 14 18 0 
15 18 0 16 18 0 17 18 0 
18 18 0 19 18 0 20 18 0 
21 18 0 22 18 0 23 18 0 
24 18 0 25 18 0 26 18 0 
27 18 0 28 18 0 29 18 0 
30 18 0 31 18 0 32 18 0 
33 18 0 34 18 0 35 18 0 
36 18 0 37 18 0 38 18 0 
39 18 0 40 18 0 41 18 0 
42 18 0 43 18 0 44 18 0 
45 18 0 46 18 0 47 18 0 
48 18 0 49 18 0 50 18 0 
0 19 0 1 19 0 2 19 0 
3 19 0 4 19 0 5 19 0 
6 19 0 7 19 0 8 19 0 
9 19 0 10 19 0 11 19 0 
12 19 0 13 19 0 14 19 0 
15 19 0 16 19 0 17 19 0 
18 19 0 19 19 0 20 19 0 
21 19 0 22 19 0 23 19 0 
24 19 0 25 19 0 26 19 0 
27 19 0 28 19 0 29 19 0 
30 19 0 31 19 0 32 19 0 
33 19 0 34 19 0 35 19 0 
36 19 0 37 19 0 38 19 0 
39 19 0 40 19 0 41 19 0 
42 19 0 43 19 0 44 19 0 
45 19 0 46 19 0 47 19 0 
48 19 0 49 19 0 50 19 0 
0 20 0 1 20 0 2 20 0 
3 20 0 4 20 0 5 20 0 
6 20 0 7 20 0 8 20 0 
9 20 0 10 20 0 11 20 0 
12 20 0 13 20 0 14 20 0 
15 20 0 16 20 0 17 20 0 
18 20 0 19 20 0 20 20 0 
21 20 0 22 20 0 23 20 0 
24 20 0 25 20 0 26 20 0 
27 20 0 28 20 0 29 20 0 
30 20 0 31 20 0 32 20 0 
33 20 0 34 20 0 35 20 0 
36 20 0 37 20 0 38 20 0 
39 20 0 40 20 0 41 20 0 
42 20 0 43 20 0 44 20 0 
45 20 0 46 20 0 47 20 0 
48 20 0 49 20 0 50 20 0 
0 21 0 1 21 0 2 21 0 
3 21 0 4 21 0 5 21 0 
6 21 0 7 21 0 8 21 0 
9 21 0 10 21 0 11 21 0 
12 21 0 13 21 0 14 21 0 
15 21 0 16 21 0 17 21 0 
18 21 0 19 21 0 20 21 0 
21 21 0 22 21 0 23 21 0 
24 21 0 25 21 0 26 21 0 
27 21 0 28 21 0 29 21 0 
30 21 0 31 21 0 32 21 0 
33 21 0 34 21 0 35 21 0 
36 21 0 37 21 0 38 21 0 
39 21 0 40 21 0 41 21 0 
42 21 0 43 21 0 44 21 0 
45 21 0 46 21 0 47 21 0 
48 21 0 49 21 0 50 21 0 
0 22 0 1 22 0 2 22 0 
3 22 0 4 22 0 5 22 0 
6 22 0 7 22 0 8 22 0 
9 22 0 10 22 0 11 22 0 
12 22 0 13 22 0 14 22 0 
15 22 0 16 22 0 17 22 0 
18 22 0 19 22 0 20 22 0 
21 22 0 22 22 0 23 22 0 
24 22 0 25 22 0 26 22 0 
27 22 0 28 22 0 29 22 0 
30 22 0 31 22 0 32 22 0 
33 22 0 34 22 0 35 22 0 
36 22 0 37 22 0 38 22 0 
39 22 0 40 22 0 41 22 0 
42 22 0 43 22 0 44 22 0 
45 22 0 46 22 0 47 22 0 
48 22 0 49 22 0 50 22 0 
0 23 0 1 23 0 2 23 0 
3 23 0 4 23 0 5 23 0 
6 23 0 7 23 0 8 23 0 
9 23 0 10 23 0 11 23 0 
12 23 0 13 23 0 14 23 0 
15 23 0 16 23 0 17 23 0 
18 23 0 19 23 0 20 23 0 
21 23 0 22 23 0 23 23 0 
24 23 0 25 23 0 26 23 0 
27 23 0 28 23 0 29 23 0 
30 23 0 31 23 0 32 23 0 
33 23 0 34 23 0 35 23 0 
36 23 0 37 23 0 38 23 0 
39 23 0 40 23 0 41 23 0 
42 23 0 43 23 0 44 23 0 
45 23 0 46 23 0 47 23 0 
48 23 0 49 23 0 50 23 0 
0 24 0 1 24 0 2 24 0 
3 24 0 4 24 0 5 24 0 
6 24 0 7 24 0 8 24 0 
9 24 0 10 24 0 11 24 0 
12 24 0 13 24 0 14 24 0 
15 24 0 16 24 0 17 24 0 
18 24 0 19 24 0 20 24 0 
21 24 0 22 24 0 23 24 0 
24 24 0 25 24 0 26 24 0 
27 24 0 28 24 0 29 24 0 
30 24 0 31 24 0 32 24 0 
33 24 0 34 24 0 35 24 0 
36 24 0 37 24 0 38 24 0 
39 24 0 40 24 0 41 24 0 
42 24 0 43 24 0 44 24 0 
45 24 0 46 24 0 47 24 0 
48 24 0 49 24 0 50 24 0 
0 25 0 1 25 0 2 25 0 
3 25 0 4 25 0 5 25 0 
[...]
CELL_DATA 2500
SCALARS $\mu_{AB} double
LOOKUP_TABLE default
-0.0009335344738 -0.00068870087625 -0.00065937497322 -0.00076613481233 -0.00096218783017 -0.0012814597095 -0.0015446691737 -0.0016172045432 -0.0016543946192 
-0.001662421549 -0.0016351381587 -0.0015668643759 -0.0013103287949 -0.00078056024825 -0.000726184803 -0.00083482195412 -0.00093315723658 -0.00083567497992 
-0.0007199297456 -0.00071720805944 -0.00085521336924 -0.00098040300866 -0.0010210460763 -0.0010297766094 -0.0010040899534 -0.0009623093752 -0.00096923107262 
-0.0010251604033 -0.0010322401321 -0.0010279124843 -0.0010282917653 -0.0010298024788 -0.00098683982407 -0.00093991058667 -0.00092145584558 -0.00090474678483 
-0.00089314491965 -0.00089641024968 -0.00090487852466 -0.00091271226719 -0.00093557394482 -0.0010381840705 -0.0011231685192 -0.001171766315 -0.0012090959788 
-0.0012212303259 -0.0012218319068 -0.0012080172163 -0.0011868273029 -0.001142533351 -0.0010821151436 -0.00093285314933 -0.00091975982878 -0.00096081233459 
-0.0010589040781 -0.0012987933478 -0.0015511561276 -0.0016328641731 -0.0016607598108 -0.0016499863072 -0.0016133356735 -0.0015488672864 -0.0013509305639 
-0.00094670477752 -0.00087425884072 -0.00097576792835 -0.0010273665194 -0.00097281923041 -0.00086509707333 -0.00083472559818 -0.00082123141157 -0.0009073159433 
-0.0010071061884 -0.0010308080711 -0.0010147145408 -0.00099781088727 -0.0010352509281 -0.0010454083452 -0.0010369489829 -0.0010278987399 -0.0010248223108 
-0.0010254796572 -0.0010014668979 -0.00094901447442 -0.00090960267469 -0.00089720086118 -0.00089048827102 -0.00088825391061 -0.00089279863586 -0.00089516945238 
-0.00090489350377 -0.00094329928461 -0.0010797126926 -0.0011786463818 -0.0012056276915 -0.0012126066654 -0.0012135796018 -0.0012044775087 -0.001194284565 
-0.0011737340349 -0.0010933102981 -0.0010047489225 -0.00098512452121 -0.00099610203838 -0.0010320081627 -0.0011310362406 -0.0014120786769 -0.001573664899 
-0.0015933268063 -0.0015481848028 -0.0014942609093 -0.0013983345348 -0.0012565718852 -0.0010911433018 -0.0009912663705 -0.0010488464319 -0.0010940715375 
-0.0010449140318 -0.00099231686303 -0.00089647135963 -0.00077664862011 -0.00078124868142 -0.00091378477173 -0.0010075511915 -0.0010366175646 -0.0010456016382 
-0.0010527458719 -0.0010494708018 -0.0010402904184 -0.0010262980307 -0.0010228124913 -0.0010288581574 -0.001023414745 -0.00097935126263 -0.00092302654073 
-0.00091251379409 -0.0009050058348 -0.00090054974868 -0.00089148404058 -0.00088956971497 -0.00089869335142 -0.00092155711388 -0.0010480494898 -0.0011512742829 
-0.0011845364651 -0.0011917726126 -0.0011917140978 -0.0011989688786 -0.0011978024768 -0.0011812731816 -0.0010440212547 -0.0010146776486 -0.00099920481589 
-0.001003298795 -0.001021329213 -0.0010513568713 -0.0011585959967 -0.001354523175 -0.0013584604342 -0.0012422040153 -0.0011474230889 -0.0010656380926 
-0.0010757601375 -0.0011246701145 -0.0011720841187 -0.0011871806578 -0.0011911269223 -0.0011666729906 -0.001096539917 -0.00092330206626 -0.00078867403027 
-0.00078479954033 -0.00091785538465 -0.0010120318779 -0.0010734000757 -0.0010634393931 -0.0010423390633 -0.0010296526376 -0.001002829776 -0.0009786485017 
-0.0010019185117 -0.001021377384 -0.0010248624647 -0.0010063372997 -0.00094609347892 -0.00092953968515 -0.00092303022161 -0.00092011090077 -0.00090367466094 
-0.00089626655588 -0.00090723944203 -0.00094749476021 -0.0010633793449 -0.0011153749795 -0.0011608440917 -0.0011753843193 -0.0011820838578 -0.001192120424 
-0.0011935986094 -0.001157361496 -0.001047006983 -0.0010313762311 -0.001014143928 -0.0010063153704 -0.0010109795875 -0.0010215300601 -0.0010397649939 
-0.0010735703761 -0.0010324598302 -0.0010205669022 -0.00099903738713 -0.00097865084904 -0.00099192987195 -0.0010731318652 -0.0012512640855 -0.0013417179398 
-0.0013283205641 -0.001263245742 -0.001192034543 -0.001038262625 -0.00086926023149 -0.00090166638574 -0.0010461870341 -0.0011101923896 -0.0011433482976 
-0.0010961389289 -0.0010177397454 -0.00099212744136 -0.00095012814498 -0.00093654732979 -0.0009663285114 -0.00099761010955 -0.0010174911002 -0.0010367036487 
-0.00098662180129 -0.0009412376318 -0.00093036595668 -0.0009211903173 -0.00091194429302 -0.00091208850464 -0.00094093429164 -0.0010619500826 -0.0010944785132 
-0.0011080938049 -0.0011288229203 -0.0011590685391 -0.0011766496139 -0.0011886812094 -0.0011799956808 -0.0011046555508 -0.0010546106302 -0.0010412270804 
-0.0010255129385 -0.00099305100439 -0.00098913887199 -0.00099685127921 -0.00099754387602 -0.00097327192449 -0.00096149592271 -0.00096023253241 -0.00096458290394 
-0.00096342297009 -0.00098467702035 -0.0010258327254 -0.0012246102893 -0.0013586603399 -0.0013269926798 -0.0012371102713 -0.0011617033228 -0.0010180459879 
-0.00089475352326 -0.0010408877768 -0.0011618340949 -0.0012254937342 -0.001236031399 -0.0011632659627 -0.0010337834791 -0.00096794424959 -0.00092454058043 
-0.0009149585541 -0.00094178921963 -0.00098000826901 -0.0010411416567 -0.0010712291456 -0.0010358380502 -0.00097251917114 -0.00093988041705 -0.00092855356398 
-0.0009239527446 -0.00094393028443 -0.0010655251696 -0.0011094382612 -0.0011102312711 -0.0011150068767 -0.0011293592142 -0.0011412773515 -0.0011623435895 
-0.0011772416572 -0.0011625089023 -0.0010956208239 -0.001052301714 -0.0010364162999 -0.0010138639325 -0.0009898547911 -0.00098037683174 -0.00098375544522 
-0.00098575227678 -0.00096864164694 -0.00096463230844 -0.00097248006833 -0.00099531998263 -0.0009920218308 -0.0010011912552 -0.0010288342905 -0.0011818423986 
-0.0013066363767 -0.0012606653799 -0.0011037368459 -0.0010146288055 -0.00085675917573 -0.00081717600453 -0.00098793496521 -0.001156827487 -0.0012288176754 
-0.0012507508224 -0.0011826339253 -0.0010671246828 -0.00099941363941 -0.0009488103001 -0.00093593112816 -0.00095974988474 -0.0010021086226 -0.0010580532952 
-0.0010717327382 -0.0010389940589 -0.0010053663036 -0.00098571263899 -0.00096037901319 -0.00096498747017 -0.0010573947313 -0.0011266201224 -0.0011377705997 
-0.0011281982049 -0.0011280633793 -0.0011401972422 -0.0011478917597 -0.001152016839 -0.0011578251198 -0.0011556712387 -0.0011086751052 -0.0010507868695 
-0.0010281051049 -0.0010082414027 -0.00099249405869 -0.00098926842278 -0.0010012035772 -0.0010170951098 -0.00099789130565 -0.0009935842039 -0.0010099827556 
-0.0010260820805 -0.0010222482612 -0.0010209224091 -0.0010453063061 -0.0011711330634 -0.0012514148224 -0.0012272021298 -0.0010934296878 -0.00092098130391 
-0.00075891558256 -0.00074979993652 -0.00089014224017 -0.0010804219078 -0.0011769353149 -0.0012071860293 -0.0011391892794 -0.0010597438816 -0.0010242188986 
-0.00098536457201 -0.0009757585535 -0.0010005664001 -0.0010178927295 -0.0010428385947 -0.0010291300102 -0.0010001605557 -0.0010032332762 -0.0010109458323 
-0.0010129995718 -0.0010266166952 -0.0011044744464 -0.0011428821207 -0.0011469987304 -0.0011367628801 -0.0011298060515 -0.0011382203035 -0.001140893763 
-0.0011268633266 -0.0011116563954 -0.0011388026717 -0.0011112616155 -0.0010133454917 -0.00099487348914 -0.0010026891188 -0.0010087052192 -0.0010549048786 
-0.001105633026 -0.0010901655369 -0.0010478326399 -0.0010222447023 -0.0010340222787 -0.001042442722 -0.0010383849867 -0.0010376466326 -0.0010899335242 
-0.0011852818215 -0.0012290636999 -0.0012278742646 -0.0011754769571 -0.0010081230728 -0.00078287582738 -0.00075601188385 -0.00088525582922 -0.001036425891 
-0.001109805888 -0.0011364479746 -0.0010958691063 -0.0010740008133 -0.0010522557644 -0.0010199932587 -0.0010153831259 -0.0010416123189 -0.0010468545808 
-0.0010321277919 -0.00099371239675 -0.00098831292684 -0.00099929515054 -0.0010109140628 -0.0010141524317 -0.0010179326945 -0.0010692003959 -0.0011288524561 
-0.0011354600704 -0.0011234637965 -0.0011175395096 -0.0011204799786 -0.0011081815577 -0.001045823578 -0.0010730328667 -0.0011178619687 -0.0010923747395 
-0.00093468995439 -0.00092118620726 -0.00097215365173 -0.0010401404641 -0.0011228893638 -0.0011628761369 -0.0011440254852 -0.0011005676722 -0.0010531210454 
-0.0010391968566 -0.0010406673279 -0.0010357026303 -0.0010517858695 -0.0011358557029 -0.001191229332 -0.0012251341368 -0.0012284538425 -0.0011977705235 
-0.0011243080647 -0.00094073640764 -0.00085306873011 -0.00090179378044 -0.00096133478478 -0.0010004879021 -0.0010530708444 -0.001070121245 -0.0010694015524 
-0.0010598193689 -0.0010543358704 -0.0010655926632 -0.0010742751451 -0.0010718075901 -0.0010264908365 -0.00098677290111 -0.00098210591319 -0.00098945260006 
-0.001003095114 -0.00099863892073 -0.00099798312845 -0.0010141475715 -0.00108011343 -0.0011127649192 -0.0011034837406 -0.001097366893 -0.0010907955393 
-0.00099776172076 -0.00094762479878 -0.00099002206645 -0.0010464642724 -0.0010156167069 -0.00087916691369 -0.00086732815246 -0.00094626424363 -0.0010210989358 
-0.0011120643187 -0.0011539365844 -0.0011341993885 -0.0011116907945 -0.0010608342714 -0.0010211543161 -0.00099578428891 -0.00097574969136 -0.0010064685725 
-0.0011205555635 -0.0011628713854 -0.0012048276709 -0.0012135554207 -0.0011773001727 -0.0010978749044 -0.00092881340405 -0.00085175337314 -0.00089597540324 
-0.00094504787307 -0.00096658318891 -0.0009795696893 -0.0010317465553 -0.0010506513892 -0.0010503428778 -0.0010561074117 -0.0010755749266 -0.0010877420712 
-0.0010829738964 -0.0010224870521 -0.00099406803746 -0.00098862492145 -0.00098928058588 -0.00097458819608 -0.00097184997336 -0.00097184842289 -0.00097669582309 
-0.0010037866506 -0.0010259183042 -0.0010422477173 -0.0010411772363 -0.00099523075106 -0.00088353853904 -0.00086921018735 -0.00091402198129 -0.00097063564965 
-0.00093922511514 -0.0009057391787 -0.00087735695529 -0.00089871122898 -0.00095158088544 -0.0010471574817 -0.0010971805548 -0.0010633886034 -0.0010541034421 
-0.0010221184249 -0.00097840236458 -0.00096241497572 -0.00093855580468 -0.0009297464236 -0.0010346852805 -0.0011154837987 -0.0011680847419 -0.0011786238201 
-0.0011465033522 -0.0010379709849 -0.00087083325931 -0.00081904997505 -0.00086119696369 -0.00093241238089 -0.00094988158466 -0.0009505371695 -0.00097176068113 
-0.0010258933547 -0.001036568372 -0.0010461689742 -0.0010662206078 -0.0010833575779 -0.0010796633147 -0.0010337663449 -0.0010070508488 -0.0010002332968 
-0.00099284702853 -0.00096841407736 -0.00095586077188 -0.00095294757743 -0.00094968310443 -0.00093618646657 -0.00091846214741 -0.00090524300728 -0.00089697486475 
-0.0008985300938 -0.00086971441584 -0.00087378416355 -0.00093034599689 -0.0010143933874 -0.00099017979179 -0.0010126474358 -0.00095905263954 -0.00093063384475 
-0.00094939317391 -0.00098841046486 -0.00099044586547 -0.00098393852847 -0.0009805840883 -0.0009725141106 -0.0009655984984 -0.00095195788647 -0.00092041255552 
-0.00089319546742 -0.00093054284337 -0.0010652053976 -0.0011485395792 -0.0011743731639 -0.001139799269 -0.0010119440637 -0.00085070038422 -0.00081033243562 
-0.00083891183942 -0.00093854530585 -0.00094219456057 -0.00093461264724 -0.00093812620333 -0.00096960506847 -0.0010030020384 -0.0010238389564 -0.0010486598122 
-0.0010675570426 -0.0010784365933 -0.0010619793075 -0.001022564966 -0.0010082012581 -0.00099488024064 -0.00097381288098 -0.00095543806378 -0.00094764081724 
-0.00092945717385 -0.000918245846 -0.00090481534366 -0.00088853202883 -0.00087741324602 -0.000880297364 -0.00090488895723 -0.00095455064812 -0.0010179837891 
-0.0010948834875 -0.0010925563144 -0.0011477567016 -0.0011396906246 -0.0010570207896 -0.0010450680183 -0.0010294123704 -0.00097606121538 -0.00094856891622 
-0.00094798087634 -0.00095957774604 -0.00096158927704 -0.0009546975662 -0.00090323133272 -0.00085454127464 -0.00086524162667 -0.00097535187056 -0.0011216200935 
-0.0011634086879 -0.0011323382199 -0.00097235438109 -0.00085931654871 -0.0008573218927 -0.00091880736033 -0.00097045369301 -0.00095387608839 -0.00093876783376 
-0.00093062392454 -0.00091551098084 -0.00090346464939 -0.00092484481936 -0.00096621941574 -0.0010138440908 -0.0010596072919 -0.0010745634347 -0.0010514657239 
-0.0010175536769 -0.00099723067999 -0.0009742231867 -0.00095349381671 -0.00093492066158 -0.00092327464563 -0.00091903139473 -0.0009084769847 -0.0008867135544 
-0.00087665200678 -0.00088356868165 -0.00089829437634 -0.00099014490254 -0.0010725755475 -0.0011631229687 -0.0011817512753 -0.0015273021834 -0.0015841815551 
-0.0013414563789 -0.0012306577176 -0.0011654901891 -0.0010696569736 -0.0010047641684 -0.00098095833737 -0.00096492271157 -0.0009641175245 -0.00096346114278 
-0.00090448040465 -0.0008525905914 -0.00084223018221 -0.00088370714911 -0.0010621151346 -0.0011271917742 -0.0010891232945 -0.00097002461295 -0.00090513346032 
-0.00092169811584 -0.00097204737483 -0.00099374652181 -0.00097920459442 -0.00096095149538 -0.00092698646457 -0.00089831415107 -0.00088873802962 -0.00091098842123 
-0.00095287998047 -0.00099247458037 -0.0010227064812 -0.0010559155499 -0.0010473253549 -0.0010188987742 -0.00099397973266 -0.000967194818 -0.00094267071891 
-0.00092391178139 -0.00091859198896 -0.0009161407976 -0.00091220060109 -0.00089158789423 -0.00089020782888 -0.00089834979556 -0.00091121227352 -0.00099184187532 
-0.0011231421093 -0.0012311187761 -0.0013429276756 -0.001770932171 -0.0019577700229 -0.0019023083136 -0.0015981773583 -0.0013776409723 -0.0012193120905 
-0.0011577501598 -0.0010598176725 -0.00098435323036 -0.00097462719548 -0.00097274598237 -0.00094157927141 -0.00089286446802 -0.00086339301888 -0.00087687272817 
-0.00096136366269 -0.00099855890096 -0.00098819149002 -0.00095879893965 -0.00093808533046 -0.00094814660212 -0.00099316135726 -0.0010082003207 -0.00099072138651 
-0.00096640067332 -0.00092403010933 -0.0009125397337 -0.00089839708629 -0.00091542215351 -0.00096751837668 -0.00099836616507 -0.0010095202684 -0.0010196454898 
-0.0010027798347 -0.00098551198697 -0.00097592782445 -0.00095000809796 -0.00092583624782 -0.00091309100623 -0.00090967856159 -0.0009082294874 -0.00090526074503 
-0.00090860128394 -0.00091027958035 -0.00091166031832 -0.00092190564292 -0.00099159009535 -0.0011275213704 -0.0012796918794 -0.0014971281056 -0.0016188682264 
-0.0020137155405 -0.0021985324147 -0.002128190519 -0.0018961996877 -0.0016155995526 -0.0013545174579 -0.0011575499019 -0.0010295466889 -0.00099217300898 
-0.00098838319453 -0.00097012497929 -0.00093190422747 -0.00089968904964 -0.00089673085724 -0.00090127441491 -0.00089899588939 -0.00090777077019 -0.00092769780107 
-0.00094902432759 -0.00097420054896 -0.0010059395173 -0.001019867359 -0.001012828014 -0.0009888635958 -0.00095890935869 -0.00095111501803 -0.00093515377481 
-0.00093161753937 -0.00097627943073 -0.00098971859526 -0.00099381283921 -0.00098162681434 -0.00095767244078 -0.00097095427843 -0.00096835652332 -0.00094332755307 
-0.00091462389946 -0.00090492332982 -0.00090390177949 -0.00090357287851 -0.00090460065597 -0.00090961376268 -0.0009142911316 -0.0009160321907 -0.00091640096495 
-0.0009275222473 -0.00094986237039 -0.0010225233 -0.0012442014839 -0.0012379703218 -0.0016448932883 -0.0020941628977 -0.002188852035 -0.0019953579362 
-0.0016051000148 -0.0012157492069 -0.0010986309362 -0.0010846212473 -0.0010394793419 -0.0010051436457 -0.00098395487593 -0.00095002604908 -0.00092436842124 
-0.00090609955617 -0.00089204730278 -0.00088708489486 -0.00089743169053 -0.00091898662116 -0.00094060318189 -0.00098272411769 -0.0010253682645 -0.0010484460057 
-0.0010525986006 -0.0010331291701 -0.00099694063081 -0.00098649631454 -0.00097896028839 -0.00096209686833 -0.00095105533271 -0.00096362186954 -0.00096264390912 
-0.00093147514764 -0.00092272927571 -0.00094327740432 -0.00094829924855 -0.00092208076093 -0.00090086335076 -0.00089759797943 -0.00090853732664 -0.00091381144911 
-0.00091765254616 -0.00092251273501 -0.00092286286532 -0.00091641655821 -0.00087020186632 -0.00079519739656 -0.00076851816915 -0.00087181270086 -0.0010432918709 
-0.0010608478713 -0.0012196094528 -0.0016423810521 -0.0018858186407 -0.0016379475869 -0.0010352121994 -0.00096251641031 -0.0010494053932 -0.0011040232467 
-0.0011278184607 -0.0010888941922 -0.0010474049743 -0.0010027336426 -0.00093837761963 -0.00091818653659 -0.00090033147963 -0.0008920895344 -0.00090593107158 
-0.00092822279544 -0.00094429158692 -0.00097397429117 -0.0010371507622 -0.0010726748114 -0.0010873509184 -0.0010857664569 -0.001040063663 -0.0010041180573 
-0.00098414730901 -0.00095854608106 -0.00094040796199 -0.0009407907937 -0.00093292503757 -0.0008903209308 -0.00088760351129 -0.00090876251061 -0.00093063275938 
-0.00091925201769 -0.00091139329837 -0.00091199150759 -0.00094068832174 -0.00099368123132 -0.00098600890656 -0.00097759400374 -0.00096783135519 -0.00092744687385 
-0.0008080930192 -0.0007349574332 -0.00072621415643 -0.00080625812787 -0.00094741663285 -0.00091257097547 -0.00098058288404 -0.0011385247623 -0.0013451680871 
-0.0008488094796 -0.00062733901325 -0.00080191119331 -0.00098438344125 -0.0010994760786 -0.0011543478671 -0.0011537139295 -0.0011236642489 -0.0010581451788 
-0.00096007791426 -0.00094067467061 -0.00091848092755 -0.00090503935946 -0.00092562906827 -0.00094345069327 -0.00095938526804 -0.00098065884927 -0.0010585813316 
-0.0010836520974 -0.0010946516997 -0.0011009406684 -0.0010942976867 -0.0010395827245 -0.00099164578642 -0.00095919808114 -0.00093880363775 -0.00093583931326 
-0.00091419424102 -0.00087765869793 -0.00087717968147 -0.00090282248439 -0.00095193110836 -0.00097043064199 -0.00094998603926 -0.00095529223748 -0.0010218193053 
-0.0011525997643 -0.0012234774319 -0.0012178766322 -0.0011440333005 -0.0010034677549 -0.00081121227448 -0.00077211656779 -0.00074141659029 -0.00077385283657 
-0.00091095167193 -0.00074380666008 -0.00079742622624 -0.0008612269377 -0.00079195930066 -0.00031552920925 -0.0002531023537 -0.00049046064057 -0.00084986104109 
-0.0010593753489 -0.0011346081808 -0.0011578056656 -0.0011722552819 -0.0011243610361 -0.00098459969741 -0.00095246280525 -0.00092719235417 -0.00091183571683 
-0.00092597658142 -0.00094504510596 -0.0009642037694 -0.0010048837655 -0.0010724665361 -0.0010864653501 -0.0010960121869 -0.001104727664 -0.0011045546935 
-0.0010912172824 -0.0010294268188 -0.00097063743413 -0.00095128758784 -0.00095794687716 -0.00093865395122 -0.00089939517261 -0.00089936850962 -0.00093202993866 
-0.00097593194859 -0.00099915912351 -0.00099284017457 -0.0010102743274 -0.0011372245907 -0.0012488696885 -0.0012879603403 -0.0012768438759 -0.0012235090794 
-0.0011191080021 -0.00090996601791 -0.00087394550826 -0.00085270551949 -0.00085353108142 -0.00075570785788 -0.0007095749516 -0.00076067365742 -0.00095807254204 
-0.00075897047597 -0.00028393563999 -2.6244412673e-05 -8.5875325227e-05 -0.00037198856227 -0.00078029330428 -0.0010147501631 -0.0010852490069 -0.001203668584 
-0.0012170370326 -0.0010378834332 -0.00094884666291 -0.00091624564529 -0.00090062491666 -0.0009090521897 -0.00093223177308 -0.00095754588116 -0.0010453537756 
-0.0010823857188 -0.0010921867588 -0.0010959367685 -0.001104266151 -0.0011026558276 -0.001093766555 -0.0010541198379 -0.00097567451221 -0.0009642107521 
-0.00098280011624 -0.00096400744014 -0.0009184054225 -0.00091370003626 -0.00094591544535 -0.00099120006165 -0.0010160689599 -0.0010200826333 -0.0010863633341 
-0.0012002884966 -0.0012392496815 -0.001271766355 -0.0012687773827 -0.0012282557843 -0.0011781032162 -0.0010309328911 -0.00097488770491 -0.00096799844277 
-0.00092330984346 -0.00076475926026 -0.0008134114919 -0.0010379285638 -0.0015157561197 -0.001262311948 -0.00066709844262 -0.00012990422608 5.0571945276e-05 
-0.00014684576416 -0.00049813104694 -0.00080613189821 -0.00099218989003 -0.0012765651714 -0.0013089513276 -0.0011432591874 -0.00095393356414 -0.00090186268407 
-0.00088633576748 -0.00089792733652 -0.0009268332929 -0.00097754431001 -0.0010753234082 -0.0010973201606 -0.0011036606679 -0.0011054742931 -0.0011000685712 
-0.0010956756076 -0.0010818878708 -0.0010113511644 -0.00092345498014 -0.00095055621451 -0.00097774818228 -0.00095852949204 -0.00090253136486 -0.00088928183179 