# vtk DataFile Version 4.2
vtk output
ASCII
DATASET UNSTRUCTURED_GRID
POINTS 2601 double
0 0 0 1 0 0 2 0 0 
3 0 0 4 0 0 5 0 0 
6 0 0 7 0 0 8 0 0 
9 0 0 10 0 0 11 0 0 
12 0 0 13 0 0 14 0 0 
15 0 0 16 0 0 17 0 0 
18 0 0 19 0 0 20 0 0 
21 0 0 22 0 0 23 0 0 
24 0 0 25 0 0 26 0 0 
27 0 0 28 0 0 29 0 0 
30 0 0 31 0 0 32 0 0 
33 0 0 34 0 0 35 0 0 
36 0 0 37 0 0 38 0 0 
39 0 0 40 0 0 41 0 0 
42 0 0 43 0 0 44 0 0 
45 0 0 46 0 0 47 0 0 
48 0 0 49 0 0 50 0 0 
0 1 0 1 1 0 2 1 0 
3 1 0 4 1 0 5 1 0 
6 1 0 7 1 0 8 1 0 
9 1 0 10 1 0 11 1 0 
12 1 0 13 1 0 14 1 0 
15 1 0 16 1 0 17 1 0 
18 1 0 19 1 0 20 1 0 
21 1 0 22 1 0 23 1 0 
24 1 0 25 1 0 26 1 0 
27 1 0 28 1 0 29 1 0 
30 1 0 31 1 0 32 1 0 
33 1 0 34 1 0 35 1 0 
36 1 0 37 1 0 38 1 0 
39 1 0 40 1 0 41 1 0 
42 1 0 43 1 0 44 1 0 
45 1 0 46 1 0 47 1 0 
48 1 0 49 1 0 50 1 0 
0 2 0 1 2 0 2 2 0 
3 2 0 4 2 0 5 2 0 
6 2 0 7 2 0 8 2 0 
9 2 0 10 2 0 11 2 0 
12 2 0 13 2 0 14 2 0 
15 2 0 16 2 0 17 2 0 
18 2 0 19 2 0 20 2 0 
21 2 0 22 2 0 23 2 0 
24 2 0 25 2 0 26 2 0 
27 2 0 28 2 0 29 2 0 
30 2 0 31 2 0 32 2 0 
33 2 0 34 2 0 35 2 0 
36 2 0 37 2 0 38 2 0 
39 2 0 40 2 0 41 2 0 
42 2 0 43 2 0 44 2 0 
45 2 0 46 2 0 47 2 0 
48 2 0 49 2 0 50 2 0 
0 3 0 1 3 0 2 3 0 
3 3 0 4 3 0 5 3 0 
6 3 0 7 3 0 8 3 0 
9 3 0 10 3 0 11 3 0 
12 3 0 13 3 0 14 3 0 
15 3 0 16 3 0 17 3 0 
18 3 0 19 3 0 20 3 0 
21 3 0 22 3 0 23 3 0 
24 3 0 25 3 0 26 3 0 
27 3 0 28 3 0 29 3 0 
30 3 0 31 3 0 32 3 0 
33 3 0 34 3 0 35 3 0 
36 3 0 37 3 0 38 3 0 
39 3 0 40 3 0 41 3 0 
42 3 0 43 3 0 44 3 0 
45 3 0 46 3 0 47 3 0 
48 3 0 49 3 0 50 3 0 
0 4 0 1 4 0 2 4 0 
3 4 0 4 4 0 5 4 0 
6 4 0 7 4 0 8 4 0 
9 4 0 10 4 0 11 4 0 
12 4 0 13 4 0 14 4 0 
15 4 0 16 4 0 17 4 0 
18 4 0 19 4 0 20 4 0 
21 4 0 22 4 0 23 4 0 
24 4 0 25 4 0 26 4 0 
27 4 0 28 4 0 29 4 0 
30 4 0 31 4 0 32 4 0 
33 4 0 34 4 0 35 4 0 
36 4 0 37 4 0 38 4 0 
39 4 0 40 4 0 41 4 0 
42 4 0 43 4 0 44 4 0 
45 4 0 46 4 0 47 4 0 
48 4 0 49 4 0 50 4 0 
0 5 0 1 5 0 2 5 0 
3 5 0 4 5 0 5 5 0 
6 5 0 7 5 0 8 5 0 
9 5 0 10 5 0 11 5 0 
12 5 0 13 5 0 14 5 0 
15 5 0 16 5 0 17 5 0 
18 5 0 19 5 0 20 5 0 
21 5 0 22 5 0 23 5 0 
24 5 0 25 5 0 26 5 0 
27 5 0 28 5 0 29 5 0 
30 5 0 31 5 0 32 5 0 
33 5 0 34 5 0 35 5 0 
36 5 0 37 5 0 38 5 0 
39 5 0 40 5 0 41 5 0 
42 5 0 43 5 0 44 5 0 
45 5 0 46 5 0 47 5 0 
48 5 0 49 5 0 50 5 0 
0 6 0 1 6 0 2 6 0 
3 6 0 4 6 0 5 6 0 
6 6 0 7 6 0 8 6 0 
9 6 0 10 6 0 11 6 0 
12 6 0 13 6 0 14 6 0 
15 6 0 16 6 0 17 6 0 
18 6 0 19 6 0 20 6 0 
21 6 0 22 6 0 23 6 0 
24 6 0 25 6 0 26 6 0 
27 6 0 28 6 0 29 6 0 
30 6 0 31 6 0 32 6 0 
33 6 0 34 6 0 35 6 0 
36 6 0 37 6 0 38 6 0 
39 6 0 40 6 0 41 6 0 
42 6 0 43 6 0 44 6 0 
45 6 0 46 6 0 47 6 0 
48 6 0 49 6 0 50 6 0 
0 7 0 1 7 0 2 7 0 
3 7 0 4 7 0 5 7 0 
6 7 0 7 7 0 8 7 0 
9 7 0 10 7 0 11 7 0 
12 7 0 13 7 0 14 7 0 
15 7 0 16 7 0 17 7 0 
18 7 0 19 7 0 20 7 0 
21 7 0 22 7 0 23 7 0 
24 7 0 25 7 0 26 7 0 
27 7 0 28 7 0 29 7 0 
30 7 0 31 7 0 32 7 0 
33 7 0 34 7 0 35 7 0 
36 7 0 37 7 0 38 7 0 
39 7 0 40 7 0 41 7 0 
42 7 0 43 7 0 44 7 0 
45 7 0 46 7 0 47 7 0 
48 7 0 49 7 0 50 7 0 
0 8 0 1 8 0 2 8 0 
3 8 0 4 8 0 5 8 0 
6 8 0 7 8 0 8 8 0 
9 8 0 10 8 0 11 8 0 
12 8 0 13 8 0 14 8 0 
15 8 0 16 8 0 17 8 0 
18 8 0 19 8 0 20 8 0 
21 8 0 22 8 0 23 8 0 
24 8 0 25 8 0 26 8 0 
27 8 0 28 8 0 29 8 0 
30 8 0 31 8 0 32 8 0 
33 8 0 34 8 0 35 8 0 
36 8 0 37 8 0 38 8 0 
39 8 0 40 8 0 41 8 0 
42 8 0 43 8 0 44 8 0 
45 8 0 46 8 0 47 8 0 
48 8 0 49 8 0 50 8 0 
0 9 0 1 9 0 2 9 0 
3 9 0 4 9 0 5 9 0 
6 9 0 7 9 0 8 9 0 
9 9 0 10 9 0 11 9 0 
12 9 0 13 9 0 14 9 0 
15 9 0 16 9 0 17 9 0 
18 9 0 19 9 0 20 9 0 
21 9 0 22 9 0 23 9 0 
24 9 0 25 9 0 26 9 0 
27 9 0 28 9 0 29 9 0 
30 9 0 31 9 0 32 9 0 
33 9 0 34 9 0 35 9 0 
36 9 0 37 9 0 38 9 0 
39 9 0 40 9 0 41 9 0 
42 9 0 43 9 0 44 9 0 
45 9 0 46 9 0 47 9 0 
48 9 0 49 9 0 50 9 0 
0 10 0 1 10 0 2 10 0 
3 10 0 4 10 0 5 10 0 
6 10 0 7 10 0 8 10 0 
9 10 0 10 10 0 11 10 0 
12 10 0 13 10 0 14 10 0 
15 10 0 16 10 0 17 10 0 
18 10 0 19 10 0 20 10 0 
21 10 0 22 10 0 23 10 0 
24 10 0 25 10 0 26 10 0 
27 10 0 28 10 0 29 10 0 
30 10 0 31 10 0 32 10 0 
33 10 0 34 10 0 35 10 0 
36 10 0 37 10 0 38 10 0 
39 10 0 40 10 0 41 10 0 
42 10 0 43 10 0 44 10 0 
45 10 0 46 10 0 47 10 0 
48 10 0 49 10 0 50 10 0 
0 11 0 1 11 0 2 11 0 
3 11 0 4 11 0 5 11 0 
6 11 0 7 11 0 8 11 0 
9 11 0 10 11 0 11 11 0 
12 11 0 13 11 0 14 11 0 
15 11 0 16 11 0 17 11 0 
18 11 0 19 11 0 20 11 0 
21 11 0 22 11 0 23 11 0 
24 11 0 25 11 0 26 11 0 
27 11 0 28 11 0 29 11 0 
30 11 0 31 11 0 32 11 0 
33 11 0 34 11 0 35 11 0 
36 11 0 37 11 0 38 11 0 
39 11 0 40 11 0 41 11 0 
42 11 0 43 11 0 44 11 0 
45 11 0 46 11 0 47 11 0 
48 11 0 49 11 0 50 11 0 
0 12 0 1 12 0 2 12 0 
3 12 0 4 12 0 5 12 0 
6 12 0 7 12 0 8 12 0 
9 12 0 10 12 0 11 12 0 
12 12 0 13 12 0 14 12 0 
15 12 0 16 12 0 17 12 0 
18 12 0 19 12 0 20 12 0 
21 12 0 22 12 0 23 12 0 
24 12 0 25 12 0 26 12 0 
27 12 0 28 12 0 29 12 0 
30 12 0 31 12 0 32 12 0 
33 12 0 34 12 0 35 12 0 
36 12 0 37 12 0 38 12 0 
39 12 0 40 12 0 41 12 0 
42 12 0 43 12 0 44 12 0 
45 12 0 46 12 0 47 12 0 
48 12 0 49 12 0 50 12 0 
0 13 0 1 13 0 2 13 0 
3 13 0 4 13 0 5 13 0 
6 13 0 7 13 0 8 13 0 
9 13 0 10 13 0 11 13 0 
12 13 0 13 13 0 14 13 0 
15 13 0 16 13 0 17 13 0 
18 13 0 19 13 0 20 13 0 
21 13 0 22 13 0 23 13 0 
24 13 0 25 13 0 26 13 0 
27 13 0 28 13 0 29 13 0 
30 13 0 31 13 0 32 13 0 
33 13 0 34 13 0 35 13 0 
36 13 0 37 13 0 38 13 0 
39 13 0 40 13 0 41 13 0 
42 13 0 43 13 0 44 13 0 
45 13 0 46 13 0 47 13 0 
48 13 0 49 13 0 50 13 0 
0 14 0 1 14 0 2 14 0 
3 14 0 4 14 0 5 14 0 
6 14 0 7 14 0 8 14 0 
9 14 0 10 14 0 11 14 0 
12 14 0 13 14 0 14 14 0 
15 14 0 16 14 0 17 14 0 
18 14 0 19 14 0 20 14 0 
21 14 0 22 14 0 23 14 0 
24 14 0 25 14 0 26 14 0 
27 14 0 28 14 0 29 14 0 
30 14 0 31 14 0 32 14 0 
33 14 0 34 14 0 35 14 0 
36 14 0 37 14 0 38 14 0 
39 14 0 40 14 0 41 14 0 
42 14 0 43 14 0 44 14 0 
45 14 0 46 14 0 47 14 0 
48 14 0 49 14 0 50 14 0 
0 15 0 1 15 0 2 15 0 
3 15 0 4 15 0 5 15 0 
6 15 0 7 15 0 8 15 0 
9 15 0 10 15 0 11 15 0 
12 15 0 13 15 0 14 15 0 
15 15 0 16 15 0 17 15 0 
18 15 0 19 15 0 20 15 0 
21 15 0 22 15 0 23 15 0 
24 15 0 25 15 0 26 15 0 
27 15 0 28 15 0 29 15 0 
30 15 0 31 15 0 32 15 0 
33 15 0 34 15 0 35 15 0 
36 15 0 37 15 0 38 15 0 
39 15 0 40 15 0 41 15 0 
42 15 0 43 15 0 44 15 0 
45 15 0 46 15 0 47 15 0 
48 15 0 49 15 0 50 15 0 
0 16 0 1 16 0 2 16 0 
3 16 0 4 16 0 5 16 0 
6 16 0 7 16 0 8 16 0 
9 16 0 10 16 0 11 16 0 
12 16 0 13 16 0 14 16 0 
15 16 0 16 16 0 17 16 0 
18 16 0 19 16 0 20 16 0 
21 16 0 22 16 0 23 16 0 
24 16 0 25 16 0 26 16 0 
27 16 0 28 16 0 29 16 0 
30 16 0 31 16 0 32 16 0 
33 16 0 34 16 0 35 16 0 
36 16 0 37 16 0 38 16 0 
39 16 0 40 16 0 41 16 0 
42 16 0 43 16 0 44 16 0 
45 16 0 46 16 0 47 16 0 
48 16 0 49 16 0 50 16 0 
0 17 0 1 17 0 2 17 0 
3 17 0 4 17 0 5 17 0 
6 17 0 7 17 0 8 17 0 
9 17 0 10 17 0 11 17 0 
12 17 0 13 17 0 14 17 0 
15 17 0 16 17 0 17 17 0 
18 17 0 19 17 0 20 17 0 
21 17 0 22 17 0 23 17 0 
24 17 0 25 17 0 26 17 0 
27 17 0 28 17 0 29 17 0 
30 17 0 31 17 0 32 17 0 
33 17 0 34 17 0 35 17 0 
36 17 0 37 17 0 38 17 0 
39 17 0 40 17 0 41 17 0 
42 17 0 43 17 0 44 17 0 
45 17 0 46 17 0 47 17 0 
48 17 0 49 17 0 50 17 0 
0 18 0 1 18 0 2 18 0 
3 18 0 4 18 0 5 18 0 
6 18 0 7 18 0 8 18 0 
9 18 0 10 18 0 11 18 0 
12 18 0 13 18 0 14 18 0 
15 18 0 16 18 0 17 18 0 
18 18 0 19 18 0 20 18 0 
21 18 0 22 18 0 23 18 0 
24 18 0 25 18 0 26 18 0 
27 18 0 28 18 0 29 18 0 
30 18 0 31 18 0 32 18 0 
33 18 0 34 18 0 35 18 0 
36 18 0 37 18 0 38 18 0 
39 18 0 40 18 0 41 18 0 
42 18 0 43 18 0 44 18 0 
45 18 0 46 18 0 47 18 0 
48 18 0 49 18 0 50 18 0 
0 19 0 1 19 0 2 19 0 
3 19 0 4 19 0 5 19 0 
6 19 0 7 19 0 8 19 0 
9 19 0 10 19 0 11 19 0 
12 19 0 13 19 0 14 19 0 
15 19 0 16 19 0 17 19 0 
18 19 0 19 19 0 20 19 0 
21 19 0 22 19 0 23 19 0 
24 19 0 25 19 0 26 19 0 
27 19 0 28 19 0 29 19 0 
30 19 0 31 19 0 32 19 0 
33 19 0 34 19 0 35 19 0 
36 19 0 37 19 0 38 19 0 
39 19 0 40 19 0 41 19 0 
42 19 0 43 19 0 44 19 0 
45 19 0 46 19 0 47 19 0 
48 19 0 49 19 0 50 19 0 
0 20 0 1 20 0 2 20 0 
3 20 0 4 20 0 5 20 0 
6 20 0 7 20 0 8 20 0 
9 20 0 10 20 0 11 20 0 
12 20 0 13 20 0 14 20 0 
15 20 0 16 20 0 17 20 0 
18 20 0 19 20 0 20 20 0 
21 20 0 22 20 0 23 20 0 
24 20 0 25 20 0 26 20 0 
27 20 0 28 20 0 29 20 0 
30 20 0 31 20 0 32 20 0 
33 20 0 34 20 0 35 20 0 
36 20 0 37 20 0 38 20 0 
39 20 0 40 20 0 41 20 0 
42 20 0 43 20 0 44 20 0 
45 20 0 46 20 0 47 20 0 
48 20 0 49 20 0 50 20 0 
0 21 0 1 21 0 2 21 0 
3 21 0 4 21 0 5 21 0 
6 21 0 7 21 0 8 21 0 
9 21 0 10 21 0 11 21 0 
12 21 0 13 21 0 14 21 0 
15 21 0 16 21 0 17 21 0 
18 21 0 19 21 0 20 21 0 
21 21 0 22 21 0 23 21 0 
24 21 0 25 21 0 26 21 0 
27 21 0 28 21 0 29 21 0 
30 21 0 31 21 0 32 21 0 
33 21 0 34 21 0 35 21 0 
36 21 0 37 21 0 38 21 0 
39 21 0 40 21 0 41 21 0 
42 21 0 43 21 0 44 21 0 
45 21 0 46 21 0 47 21 0 
48 21 0 49 21 0 50 21 0 
0 22 0 1 22 0 2 22 0 
3 22 0 4 22 0 5 22 0 
6 22 0 7 22 0 8 22 0 
9 22 0 10 22 0 11 22 0 
12 22 0 13 22 0 14 22 0 
15 22 0 16 22 0 17 22 0 
18 22 0 19 22 0 20 22 0 
21 22 0 22 22 0 23 22 0 
24 22 0 25 22 0 26 22 0 
27 22 0 28 22 0 29 22 0 
30 22 0 31 22 0 32 22 0 
33 22 0 34 22 0 35 22 0 
36 22 0 37 22 0 38 22 0 
39 22 0 40 22 0 41 22 0 
42 22 0 43 22 0 44 22 0 
45 22 0 46 22 0 47 22 0 
48 22 0 49 22 0 50 22 0 
0 23 0 1 23 0 2 23 0 
3 23 0 4 23 0 5 23 0 
6 23 0 7 23 0 8 23 0 
9 23 0 10 23 0 11 23 0 
12 23 0 13 23 0 14 23 0 
15 23 0 16 23 0 17 23 0 
18 23 0 19 23 0 20 23 0 
21 23 0 22 23 0 23 23 0 
24 23 0 25 23 0 26 23 0 
27 23 0 28 23 0 29 23 0 
30 23 0 31 23 0 32 23 0 
33 23 0 34 23 0 35 23 0 
36 23 0 37 23 0 38 23 0 
39 23 0 40 23 0 41 23 0 
42 23 0 43 23 0 44 23 0 
45 23 0 46 23 0 47 23 0 
48 23 0 49 23 0 50 23 0 
0 24 0 1 24 0 2 24 0 
3 24 0 4 24 0 5 24 0 
6 24 0 7 24 0 8 24 0 
9 24 0 10 24 0 11 24 0 
12 24 0 13 24 0 14 24 0 
15 24 0 16 24 0 17 24 0 
18 24 0 19 24 0 20 24 0 
21 24 0 22 24 0 23 24 0 
24 24 0 25 24 0 26 24 0 
27 24 0 28 24 0 29 24 0 
30 24 0 31 24 0 32 24 0 
33 24 0 34 24 0 35 24 0 
36 24 0 37 24 0 38 24 0 
39 24 0 40 24 0 41 24 0 
42 24 0 43 24 0 44 24 0 
45 24 0 46 24 0 47 24 0 
48 24 0 49 24 0 50 24 0 
0 25 0 1 25 0 2 25 0 
3 25 0 4 25 0 5 25 0 
[...]
CELL_DATA 2500
SCALARS $\mu_{AB} double
LOOKUP_TABLE default
-0.00094694694977 -0.0007242893213 -0.00069407549108 -0.00077595665855 -0.00094906756954 -0.0012794711831 -0.0015695384881 -0.0016585727812 -0.0017107336141 
-0.0017232819666 -0.0016862832587 -0.00160260306 -0.0013168832089 -0.00080346971464 -0.00074988886027 -0.0008381258433 -0.00092021880261 -0.00084338725435 
-0.00074862490012 -0.00074640188781 -0.00086438567036 -0.00097674390744 -0.0010127403558 -0.0010211398675 -0.00099957458572 -0.00096257218242 -0.00096961217554 
-0.0010246839826 -0.0010365972751 -0.0010352642298 -0.0010329321448 -0.00102607963 -0.00099367633112 -0.0009592862089 -0.00094166063085 -0.00091212150874 
-0.00089681638872 -0.00089614337539 -0.00090042363783 -0.00090549038647 -0.00092365827751 -0.0010117162729 -0.0010984542303 -0.0011595130957 -0.001204060804 
-0.0012193798423 -0.0012245796057 -0.0012167853441 -0.0011974296063 -0.0011531130177 -0.001088186033 -0.00094390724399 -0.00092859345695 -0.00096162377946 
-0.0010498500731 -0.0012911583385 -0.0015614286223 -0.001658995806 -0.0016990403249 -0.0016938369175 -0.0016556327849 -0.0015794272896 -0.0013574665526 
-0.00094023952527 -0.00086742591362 -0.00094985868726 -0.00099255978033 -0.00095112079169 -0.00086395353853 -0.00084628063497 -0.00085341850649 -0.00092311846487 
-0.0010024406004 -0.0010218376433 -0.0010081784706 -0.00099374005308 -0.0010303773355 -0.0010430148391 -0.0010411951776 -0.0010361424096 -0.0010315993863 
-0.0010275389993 -0.0010045807398 -0.00095904462889 -0.00091651466096 -0.00090055205551 -0.0008940637728 -0.00089100770597 -0.00089196138181 -0.00089268942328 
-0.00090069858606 -0.00093508597383 -0.0010686025857 -0.0011758896866 -0.0012068540556 -0.0012158471504 -0.0012180205743 -0.001210655991 -0.001199651487 
-0.0011789014331 -0.0010942982431 -0.0010107498136 -0.00099156709042 -0.00099711577938 -0.0010255493639 -0.0011197858027 -0.0014049259717 -0.0015807631912 
-0.0016092592488 -0.0015669055865 -0.0015116218614 -0.001403662281 -0.0012426593813 -0.0010537535269 -0.00095015186427 -0.0009971610855 -0.0010345952727 
-0.00099842012757 -0.00095974985579 -0.00091203855668 -0.00083924113745 -0.00084853476821 -0.00093837304714 -0.0010028584781 -0.0010230525793 -0.001032143542 
-0.0010421619334 -0.0010415839628 -0.0010389367422 -0.00103069204 -0.0010235952149 -0.0010238140199 -0.0010168636664 -0.00097167066567 -0.00091925786085 
-0.00090996368628 -0.00090451174752 -0.00090099484483 -0.0008907563694 -0.00088857439064 -0.00089655289497 -0.00091871967846 -0.0010469969055 -0.0011572295704 
-0.0011933524016 -0.0012012442483 -0.0011992813164 -0.001200023102 -0.0011966213545 -0.0011794603131 -0.0010453920306 -0.0010190383142 -0.0010045143223 
-0.0010039411806 -0.0010156154834 -0.0010413717488 -0.0011456434045 -0.0013422236281 -0.0013471140691 -0.001234917719 -0.0011429962466 -0.0010589549898 
-0.0010527106582 -0.0010609879429 -0.0010710903552 -0.0010830209077 -0.0010933741131 -0.0010817476283 -0.0010455323402 -0.00093728035342 -0.00085282401771 
-0.00085601056626 -0.00094710761105 -0.001005862674 -0.0010465132496 -0.0010412709029 -0.0010286576883 -0.001019904343 -0.00099846952673 -0.00097654266539 
-0.00099522945915 -0.0010087562328 -0.0010088712074 -0.00098281358958 -0.00093341227134 -0.00092198551003 -0.00091835966763 -0.00091726132219 -0.00090383135902 
-0.00089625845288 -0.00090631416743 -0.00094707878154 -0.0010695971731 -0.0011257066636 -0.0011723185532 -0.0011867702321 -0.0011887122441 -0.0011914152359 
-0.0011884514672 -0.0011516182452 -0.0010434488997 -0.0010305301461 -0.00101650998 -0.0010054759137 -0.0010061408719 -0.0010142344098 -0.0010309661991 
-0.0010633816508 -0.0010265085616 -0.0010166168469 -0.00099545124617 -0.00097327851017 -0.00097813785918 -0.0010214348669 -0.0011223020809 -0.0011814319627 
-0.0011838736769 -0.0011551321908 -0.0011197320062 -0.0010219362225 -0.00091467745173 -0.00094224096259 -0.0010414794523 -0.0010786926505 -0.0010948189492 
-0.0010575797888 -0.0010037578241 -0.00098508076309 -0.00094963537621 -0.00093614416995 -0.00095919449451 -0.0009824613709 -0.00099273787206 -0.00099320493212 
-0.00095751687012 -0.00093083590276 -0.00092486651336 -0.00091913913567 -0.00091216174275 -0.00091255360967 -0.00094067388613 -0.0010638063594 -0.0011025805326 
-0.00111834892 -0.0011366429519 -0.0011680391563 -0.0011814299669 -0.0011848080715 -0.0011694285654 -0.0010951151536 -0.0010452626052 -0.0010352582683 
-0.0010222077347 -0.00099479001473 -0.000990112541 -0.00099505366002 -0.00099462581863 -0.0009693046012 -0.00095841154301 -0.00095854281969 -0.00096396377936 
-0.00096024551929 -0.00097501889335 -0.0009983873876 -0.0011139520098 -0.0012024983649 -0.0011930510694 -0.0011462422601 -0.0011072781488 -0.0010169401603 
-0.00093728961406 -0.001034173638 -0.0011147854011 -0.0011517766383 -0.0011533858229 -0.0010981073025 -0.0010093955921 -0.00096296400248 -0.00092771895461 
-0.00091867262865 -0.00093811154737 -0.00096492902661 -0.00099794601035 -0.001009535108 -0.00098846104699 -0.00095359244191 -0.00093325744646 -0.00092629545531 
-0.00092375833055 -0.00094328628604 -0.0010632497503 -0.0011102545992 -0.0011165797143 -0.0011227887938 -0.0011333214962 -0.0011419344426 -0.0011581583718 
-0.0011607553984 -0.0011368979804 -0.0010774565545 -0.0010396819344 -0.001028984164 -0.0010115125309 -0.00099277209 -0.00098480071647 -0.00098628365694 
-0.00098502725007 -0.00096384908061 -0.00095973732687 -0.00096848010258 -0.0009933906473 -0.00099095148415 -0.00099534415691 -0.0010120098993 -0.0011066959303 
-0.0011922150458 -0.0011668966667 -0.001066684386 -0.0010141831659 -0.00090762210632 -0.00087460167767 -0.0009865901949 -0.0011012760213 -0.0011437213231 
-0.001156007337 -0.0011106778675 -0.0010368670647 -0.00099135449491 -0.00095081295167 -0.00094080796328 -0.00095879707623 -0.00098433869876 -0.0010117645034 
-0.0010168984271 -0.0010032503144 -0.00099066264538 -0.00097718547515 -0.00095531979222 -0.00096152956144 -0.0010510577222 -0.0011207477461 -0.0011344511177 
-0.0011299587582 -0.0011310910566 -0.0011382792593 -0.0011414167479 -0.0011399169736 -0.0011285736816 -0.0011152615881 -0.0010775883351 -0.00103168421 
-0.0010206091341 -0.0010062087525 -0.00099450499367 -0.00099192430708 -0.0010001061587 -0.0010094000471 -0.00098926375462 -0.00098558969771 -0.0010027394502 
-0.0010216445289 -0.0010212985222 -0.001018449742 -0.001036425805 -0.0011320085358 -0.0012010867261 -0.0011880423487 -0.0010774574335 -0.00094421383152 
-0.00083040407891 -0.00081530658402 -0.00090444184749 -0.0010343539718 -0.0010979034557 -0.0011234004358 -0.0010878963527 -0.001041649119 -0.001016180379 
-0.00098512830839 -0.0009794039116 -0.0010018049112 -0.0010126596606 -0.0010183007099 -0.0010076662066 -0.00099696289053 -0.0010004931316 -0.0010044956729 
-0.0010045497953 -0.0010183133223 -0.0010967565578 -0.0011370972561 -0.0011440100684 -0.0011387981354 -0.0011322084952 -0.0011354969495 -0.0011333476391 
-0.0011125922124 -0.0010795066581 -0.0010922874439 -0.0010715289284 -0.0010014387683 -0.00099058151784 -0.0010002079469 -0.0010057870496 -0.0010411408546 
-0.0010819593107 -0.0010692043226 -0.0010326558916 -0.0010115248373 -0.0010246290678 -0.0010359030493 -0.0010355515118 -0.0010356214125 -0.0010871362432 
-0.0011820534318 -0.0012298532137 -0.0012305212271 -0.0011817850262 -0.0010258091883 -0.00084398670099 -0.00081287309116 -0.00089322796253 -0.00099381255263 
-0.0010476914801 -0.0010786969895 -0.0010701344006 -0.0010603419383 -0.0010448864091 -0.0010177083858 -0.0010168374128 -0.0010400708667 -0.0010433388423 
-0.0010261832148 -0.00099651243486 -0.00099334570739 -0.0010000001068 -0.0010059576266 -0.0010063923781 -0.0010101265839 -0.0010631144573 -0.0011273448653 
-0.0011372493663 -0.0011303368771 -0.0011246573899 -0.0011227427685 -0.0011062765905 -0.0010346939896 -0.0010474240883 -0.0010768380286 -0.0010577789097 
-0.00094820433581 -0.00093682093535 -0.00097265636831 -0.0010281661509 -0.0010961498721 -0.0011304504292 -0.0011153433057 -0.0010781910144 -0.0010379975196 
-0.0010281668401 -0.0010325660039 -0.001031203358 -0.0010507174422 -0.0011425778113 -0.001202915019 -0.0012367662599 -0.0012397143663 -0.0012096026928 
-0.00113529447 -0.000952325651 -0.00085264686188 -0.00088351221834 -0.00093302848109 -0.00097191709989 -0.0010244601795 -0.0010601061513 -0.00106492645 
-0.0010602617155 -0.0010574641298 -0.0010639265871 -0.0010692572566 -0.0010659349987 -0.0010256566365 -0.00099346431324 -0.00098948162454 -0.00099390985952 
-0.00099953552499 -0.00099436262419 -0.00099395941426 -0.0010104490354 -0.0010797696566 -0.0011167508017 -0.0011127581085 -0.0011073190389 -0.0010971255465 
-0.0010077738701 -0.00096062110716 -0.00099005394985 -0.001028035513 -0.0010053716011 -0.00090996891044 -0.0008977241999 -0.00095187364932 -0.0010148220615 
-0.0010889254523 -0.0011245801556 -0.0011090583829 -0.0010892655075 -0.0010434902674 -0.0010065350024 -0.00098049893352 -0.00096237128564 -0.0010031671379 
-0.0011318934821 -0.0011789194621 -0.0012213205749 -0.0012286169402 -0.0011905338668 -0.0011077711436 -0.0009277588756 -0.00084259016695 -0.00087587940916 
-0.00092136059362 -0.00094962313372 -0.00096915004028 -0.0010325316228 -0.0010565834708 -0.0010595219644 -0.0010644903377 -0.0010759757043 -0.0010817534827 
-0.0010751251986 -0.0010194493222 -0.00099580839846 -0.00099101019495 -0.00099004817445 -0.00097667452494 -0.00097451231024 -0.0009742562572 -0.00097846142411 
-0.001004121516 -0.0010286161498 -0.0010501729159 -0.0010516070121 -0.0010093405993 -0.00091625274358 -0.00090470600165 -0.00093815172233 -0.00097912899845 
-0.00095387291493 -0.0009295838097 -0.00090279739079 -0.00091694238255 -0.00096356765597 -0.0010412697769 -0.0010836458362 -0.0010558923763 -0.0010458163992 
-0.0010116818564 -0.00096593220805 -0.00094472564719 -0.00092211370039 -0.00092281791701 -0.0010407542977 -0.0011294087441 -0.0011830783533 -0.0011904574726 
-0.0011563576257 -0.0010438868856 -0.00087275827143 -0.00081498784549 -0.0008488785924 -0.00091921016103 -0.0009459226971 -0.00095298143323 -0.0009778742461 
-0.0010366887759 -0.0010494235387 -0.0010561678272 -0.0010683227869 -0.0010772513517 -0.0010664155642 -0.0010206861177 -0.0010000260385 -0.00099472131656 
-0.0009881744195 -0.00097113479578 -0.00096268600316 -0.00095998989381 -0.00095405650647 -0.00093386572701 -0.00091670534398 -0.00090813212924 -0.00090404441883 
-0.00091262381406 -0.00090229785701 -0.00090845159645 -0.0009527361757 -0.0010145296426 -0.0009940645655 -0.0010045114111 -0.00095917814498 -0.00094326067644 
-0.0009683477427 -0.0010055279386 -0.0010105926972 -0.00099842599245 -0.0009906590073 -0.00096992861886 -0.00095716797471 -0.00093687032456 -0.00090581222248 
-0.00088641414541 -0.0009324174812 -0.0010734144838 -0.00115727254 -0.0011804132594 -0.0011447108635 -0.0010130029084 -0.00085222177824 -0.00080787037604 
-0.00083314853389 -0.00093894855128 -0.00095070420418 -0.00094881552298 -0.00095312792532 -0.00098456756082 -0.0010168654966 -0.0010334461329 -0.00104900528 
-0.0010549477264 -0.0010498352596 -0.0010304973921 -0.0010055748227 -0.00099677976843 -0.00098740126467 -0.00097356123788 -0.00096133402475 -0.00095368071504 
-0.00092750875879 -0.00091330664409 -0.00090213977882 -0.00089047415701 -0.00088303870964 -0.0008866674411 -0.00091672173259 -0.00096481072425 -0.0010156007158 
-0.0010702895667 -0.0010661235956 -0.0010835680459 -0.0010689326856 -0.0010307526038 -0.001040276731 -0.0010420754668 -0.0010045296244 -0.00097642041691 
-0.00096864434614 -0.00096483258606 -0.00096260994014 -0.00094778929138 -0.00089436918404 -0.00085260894299 -0.00086872622738 -0.00097850202483 -0.0011255203165 
-0.0011655890409 -0.0011330156474 -0.00096651389079 -0.00085438251981 -0.0008488759712 -0.00090686860227 -0.00096997570669 -0.00096456226699 -0.00095507877464 
-0.00094754507431 -0.00093124457759 -0.00091849352689 -0.00093348776749 -0.00096254646181 -0.00099621242559 -0.0010237560224 -0.0010293004596 -0.0010157446106 
-0.00099915505228 -0.000987421157 -0.00097271828796 -0.00095759746183 -0.00093523088214 -0.00091831887082 -0.00091346880657 -0.00090435954865 -0.00088808632586 
-0.00088106006976 -0.0008865660991 -0.0008993296254 -0.00097828418569 -0.0010463132257 -0.0011097400202 -0.001118351226 -0.0013149301689 -0.0013437339815 
-0.0011927814551 -0.0011499760725 -0.0011223611351 -0.0010625299476 -0.0010120324303 -0.0009870610369 -0.0009729174309 -0.00097085592981 -0.00096596865288 
-0.00090097722424 -0.00085036236822 -0.00084388662618 -0.00088570350321 -0.0010615097161 -0.0011261658358 -0.001085207809 -0.0009599611773 -0.00089151722854 
-0.00090536789816 -0.00095448198172 -0.00098391524185 -0.00098162324295 -0.00096929631077 -0.00093798249436 -0.00091044293988 -0.00090314888433 -0.00091913684644 
-0.00094914686403 -0.00097791148188 -0.000997159516 -0.0010140135427 -0.0010067742491 -0.00099095260616 -0.0009776289734 -0.00096137422404 -0.00094286251692 
-0.00092255910782 -0.00091558480315 -0.00091291150972 -0.0009091012042 -0.00089230487939 -0.00089099987916 -0.00089644313661 -0.00090515589099 -0.00096160449491 
-0.001060342823 -0.0011395723622 -0.0012072202774 -0.001470565438 -0.0015994622477 -0.0015511202268 -0.0013441744488 -0.0012270433544 -0.0011357194199 
-0.0010916143133 -0.0010333866796 -0.00098769563113 -0.0009800170774 -0.00097165818859 -0.00093306011074 -0.00088472090943 -0.00085893173477 -0.00087366530774 
-0.00095956981514 -0.00099650224545 -0.00098377896078 -0.00094900531113 -0.00092180894698 -0.00092822448806 -0.00097180414702 -0.00099385614152 -0.00098809858501 
-0.00096807248737 -0.00092875651706 -0.00091878388516 -0.00090889182823 -0.00092195851069 -0.0009607751669 -0.00098447640357 -0.00099145767778 -0.00099300396342 
-0.00097600088415 -0.00096444931329 -0.0009599955928 -0.0009444120779 -0.0009282606175 -0.00091531249882 -0.00091058046768 -0.00090907824683 -0.00090734846448 
-0.00090889207916 -0.00090728793713 -0.00090625266365 -0.00091138052245 -0.00094887197015 -0.0010339945502 -0.0011381704509 -0.0012845853346 -0.0013460464524 
-0.0016272711939 -0.0017680734517 -0.0017181665905 -0.0015534052204 -0.0013626858756 -0.0012014058745 -0.0010982409629 -0.0010253344246 -0.00099358052031 
-0.00098197581384 -0.00095711156118 -0.00091836521751 -0.00088977981213 -0.00089280601577 -0.00090350670461 -0.00090273833969 -0.00090916383991 -0.00092337942537 
-0.00093593004268 -0.00095404239358 -0.00098400539409 -0.0010034199805 -0.0010031769896 -0.00098131364637 -0.00095253870269 -0.00094598054543 -0.00093536078931 
-0.00093466197725 -0.00097161974159 -0.00098255598502 -0.00098433891238 -0.0009693284966 -0.00094494058557 -0.00095419908417 -0.00095440908363 -0.00093955324399 
-0.00092134921629 -0.00091315301835 -0.0009080039283 -0.00090705145366 -0.00090778136938 -0.00091057468858 -0.00091202319285 -0.00091057561461 -0.00090633191737 
-0.00089525744748 -0.00089988065795 -0.00095597662899 -0.0011035979701 -0.0011064935755 -0.0013449862008 -0.0016771029847 -0.0017550271106 -0.0016052899145 
-0.0013147519589 -0.0010830543521 -0.0010790760502 -0.0011054080672 -0.0010503181672 -0.0010004105246 -0.00096979991857 -0.00093426526696 -0.00091427525203 
-0.00090524116402 -0.0008959065785 -0.00089196300214 -0.00090007854853 -0.0009175081724 -0.0009343510401 -0.00096755866194 -0.0010073175444 -0.0010340821183 
-0.0010418534728 -0.0010217201264 -0.00098281943456 -0.00097306849968 -0.00096930600675 -0.00096247288188 -0.00095903636271 -0.00096764662349 -0.00096490454207 
-0.00093111900239 -0.00092093881647 -0.00093519605714 -0.00094089326094 -0.0009263373218 -0.00091356378328 -0.00091112912297 -0.00091538395342 -0.00091597761646 
-0.00091876510726 -0.00092198717347 -0.000920373455 -0.00091177136012 -0.00086616146474 -0.0008011343233 -0.00078959403403 -0.00087272818905 -0.00099310965049 
-0.0010114230495 -0.0010846299041 -0.0013295503081 -0.0014904844322 -0.0012703748567 -0.00081488990298 -0.00088901590514 -0.0010524602456 -0.0011423855088 
-0.001162912524 -0.0010998714953 -0.0010330077323 -0.0009801597541 -0.00092962767896 -0.00091582651062 -0.00090297112328 -0.00089633767159 -0.00090750510363 
-0.00092591110464 -0.00093957679075 -0.00096640464516 -0.0010296724046 -0.001070586006 -0.0010858889858 -0.0010809086058 -0.0010286234525 -0.0009907458146 
-0.00097674521775 -0.00096159626695 -0.0009516081482 -0.00095247044284 -0.00094339660489 -0.00090120246061 -0.00089759424858 -0.00091269449168 -0.0009297075349 
-0.00092722663121 -0.00092297782085 -0.00092345754957 -0.00094346837139 -0.00098227637231 -0.00097627901526 -0.00097124095146 -0.00096405221138 -0.00092565315759 
-0.00081624600316 -0.00076172792259 -0.00076233754696 -0.0008332687023 -0.00094169200984 -0.00091323335031 -0.00093418381816 -0.00099658959156 -0.0010337348742 
-0.00057974539275 -0.00050120195743 -0.00074964475715 -0.00099268452004 -0.0011365758572 -0.0011881647666 -0.0011733939684 -0.0011027028205 -0.001020966698 
-0.00094595135768 -0.00093290591675 -0.00091771345774 -0.00090707915792 -0.00092432686591 -0.0009392115414 -0.00095361245224 -0.00097595798462 -0.0010607579916 
-0.0010879061518 -0.0010962001306 -0.0010990727125 -0.0010901184675 -0.0010305155569 -0.00098536241807 -0.00096264246411 -0.00094979334551 -0.00094722582674 
-0.00092499657067 -0.00089313694485 -0.00089250966103 -0.00091283940815 -0.00095167177469 -0.00096677142202 -0.00095209862421 -0.00095637598101 -0.001009401168 
-0.0011205706637 -0.0011902545078 -0.0011987663269 -0.0011423244337 -0.001006333271 -0.00082087447996 -0.00078731204249 -0.00076799742488 -0.00080390073658 
-0.00091728832673 -0.00078314460641 -0.00080793046528 -0.00081692016669 -0.0005546132336 -0.00020867245349 -0.00018541629537 -0.00044593032934 -0.00086636091611 
-0.0010718142827 -0.0011357956552 -0.0011477762631 -0.0011236825737 -0.001054232384 -0.00095945283879 -0.00094066602087 -0.00092493163769 -0.00091436450371 
-0.00092622999515 -0.00094133701087 -0.00095902201275 -0.0010032421443 -0.0010776007342 -0.0010924336507 -0.0010995803348 -0.0011047105553 -0.0011029693019 
-0.0010884471154 -0.0010251801276 -0.00097103705659 -0.0009530907129 -0.0009531713063 -0.00093558448024 -0.00090787951196 -0.00091014560979 -0.00093620430703 
-0.00096992275048 -0.00098783229134 -0.00098398508611 -0.000999308211 -0.0011106456357 -0.0012165739929 -0.0012580847626 -0.0012629220035 -0.0012334295715 
-0.0011320309818 -0.00090649681515 -0.00086802787446 -0.00085258766698 -0.00085655054179 -0.00079005281317 -0.00075086730661 -0.00078437170732 -0.00088454481971 
-0.00059900401635 -0.00026151938907 -4.7959666372e-05 -0.00015436926062 -0.00042369026958 -0.00074613362724 -0.00097022920628 -0.0010246070454 -0.0010946599055 
-0.001086998787 -0.00098057567355 -0.00093506395706 -0.0009162624207 -0.00090614998444 -0.00091283359042 -0.00093111336324 -0.00095397629176 -0.0010454105931 
-0.0010856546223 -0.0010967495396 -0.0010998673274 -0.0011055745911 -0.0011037206829 -0.0010940245522 -0.0010515434149 -0.00096678604997 -0.00094748408578 
-0.00096177548856 -0.00094608999758 -0.00091147599406 -0.00091760766622 -0.00094573730194 -0.00098106803901 -0.001000687525 -0.0010059264006 -0.0010682761981 
-0.0011788263951 -0.0012198160355 -0.0012548114149 -0.001266850718 -0.0012487049245 -0.0012029317618 -0.0010252340973 -0.0009516728374 -0.00094012721499 
-0.00090518440626 -0.00078683561696 -0.00083244035277 -0.0010077092985 -0.0014247955821 -0.0011902063165 -0.00071987836682 -0.00030350583557 -9.5995709452e-05 
-0.00015080106262 -0.00043841377529 -0.00071785297936 -0.00087413686983 -0.0010938943868 -0.0011186863207 -0.0010226494454 -0.00092816612879 -0.00090274718774 
-0.00089310519845 -0.00090208361214 -0.00092500539518 -0.00096873296901 -0.0010691064551 -0.0010956603689 -0.0011040541718 -0.0011068158775 -0.0011042363667 
-0.0010996270569 -0.0010848565108 -0.0010090960239 -0.00091117797175 -0.00093242653106 -0.00095565769566 -0.0009399264988 -0.0008942820084 -0.00088599440605 