# vtk DataFile Version 4.2
vtk output
ASCII
DATASET UNSTRUCTURED_GRID
POINTS 2601 double
0 0 0 1 0 0 2 0 0 
3 0 0 4 0 0 5 0 0 
6 0 0 7 0 0 8 0 0 
9 0 0 10 0 0 11 0 0 
12 0 0 13 0 0 14 0 0 
15 0 0 16 0 0 17 0 0 
18 0 0 19 0 0 20 0 0 
21 0 0 22 0 0 23 0 0 
24 0 0 25 0 0 26 0 0 
27 0 0 28 0 0 29 0 0 
30 0 0 31 0 0 32 0 0 
33 0 0 34 0 0 35 0 0 
36 0 0 37 0 0 38 0 0 
39 0 0 40 0 0 41 0 0 
42 0 0 43 0 0 44 0 0 
45 0 0 46 0 0 47 0 0 
48 0 0 49 0 0 50 0 0 
0 1 0 1 1 0 2 1 0 
3 1 0 4 1 0 5 1 0 
6 1 0 7 1 0 8 1 0 
9 1 0 10 1 0 11 1 0 
12 1 0 13 1 0 14 1 0 
15 1 0 16 1 0 17 1 0 
18 1 0 19 1 0 20 1 0 
21 1 0 22 1 0 23 1 0 
24 1 0 25 1 0 26 1 0 
27 1 0 28 1 0 29 1 0 
30 1 0 31 1 0 32 1 0 
33 1 0 34 1 0 35 1 0 
36 1 0 37 1 0 38 1 0 
39 1 0 40 1 0 41 1 0 
42 1 0 43 1 0 44 1 0 
45 1 0 46 1 0 47 1 0 
48 1 0 49 1 0 50 1 0 
0 2 0 1 2 0 2 2 0 
3 2 0 4 2 0 5 2 0 
6 2 0 7 2 0 8 2 0 
9 2 0 10 2 0 11 2 0 
12 2 0 13 2 0 14 2 0 
15 2 0 16 2 0 17 2 0 
18 2 0 19 2 0 20 2 0 
21 2 0 22 2 0 23 2 0 
24 2 0 25 2 0 26 2 0 
27 2 0 28 2 0 29 2 0 
30 2 0 31 2 0 32 2 0 
33 2 0 34 2 0 35 2 0 
36 2 0 37 2 0 38 2 0 
39 2 0 40 2 0 41 2 0 
42 2 0 43 2 0 44 2 0 
45 2 0 46 2 0 47 2 0 
48 2 0 49 2 0 50 2 0 
0 3 0 1 3 0 2 3 0 
3 3 0 4 3 0 5 3 0 
6 3 0 7 3 0 8 3 0 
9 3 0 10 3 0 11 3 0 
12 3 0 13 3 0 14 3 0 
15 3 0 16 3 0 17 3 0 
18 3 0 19 3 0 20 3 0 
21 3 0 22 3 0 23 3 0 
24 3 0 25 3 0 26 3 0 
27 3 0 28 3 0 29 3 0 
30 3 0 31 3 0 32 3 0 
33 3 0 34 3 0 35 3 0 
36 3 0 37 3 0 38 3 0 
39 3 0 40 3 0 41 3 0 
42 3 0 43 3 0 44 3 0 
45 3 0 46 3 0 47 3 0 
48 3 0 49 3 0 50 3 0 
0 4 0 1 4 0 2 4 0 
3 4 0 4 4 0 5 4 0 
6 4 0 7 4 0 8 4 0 
9 4 0 10 4 0 11 4 0 
12 4 0 13 4 0 14 4 0 
15 4 0 16 4 0 17 4 0 
18 4 0 19 4 0 20 4 0 
21 4 0 22 4 0 23 4 0 
24 4 0 25 4 0 26 4 0 
27 4 0 28 4 0 29 4 0 
30 4 0 31 4 0 32 4 0 
33 4 0 34 4 0 35 4 0 
36 4 0 37 4 0 38 4 0 
39 4 0 40 4 0 41 4 0 
42 4 0 43 4 0 44 4 0 
45 4 0 46 4 0 47 4 0 
48 4 0 49 4 0 50 4 0 
0 5 0 1 5 0 2 5 0 
3 5 0 4 5 0 5 5 0 
6 5 0 7 5 0 8 5 0 
9 5 0 10 5 0 11 5 0 
12 5 0 13 5 0 14 5 0 
15 5 0 16 5 0 17 5 0 
18 5 0 19 5 0 20 5 0 
21 5 0 22 5 0 23 5 0 
24 5 0 25 5 0 26 5 0 
27 5 0 28 5 0 29 5 0 
30 5 0 31 5 0 32 5 0 
33 5 0 34 5 0 35 5 0 
36 5 0 37 5 0 38 5 0 
39 5 0 40 5 0 41 5 0 
42 5 0 43 5 0 44 5 0 
45 5 0 46 5 0 47 5 0 
48 5 0 49 5 0 50 5 0 
0 6 0 1 6 0 2 6 0 
3 6 0 4 6 0 5 6 0 
6 6 0 7 6 0 8 6 0 
9 6 0 10 6 0 11 6 0 
12 6 0 13 6 0 14 6 0 
15 6 0 16 6 0 17 6 0 
18 6 0 19 6 0 20 6 0 
21 6 0 22 6 0 23 6 0 
24 6 0 25 6 0 26 6 0 
27 6 0 28 6 0 29 6 0 
30 6 0 31 6 0 32 6 0 
33 6 0 34 6 0 35 6 0 
36 6 0 37 6 0 38 6 0 
39 6 0 40 6 0 41 6 0 
42 6 0 43 6 0 44 6 0 
45 6 0 46 6 0 47 6 0 
48 6 0 49 6 0 50 6 0 
0 7 0 1 7 0 2 7 0 
3 7 0 4 7 0 5 7 0 
6 7 0 7 7 0 8 7 0 
9 7 0 10 7 0 11 7 0 
12 7 0 13 7 0 14 7 0 
15 7 0 16 7 0 17 7 0 
18 7 0 19 7 0 20 7 0 
21 7 0 22 7 0 23 7 0 
24 7 0 25 7 0 26 7 0 
27 7 0 28 7 0 29 7 0 
30 7 0 31 7 0 32 7 0 
33 7 0 34 7 0 35 7 0 
36 7 0 37 7 0 38 7 0 
39 7 0 40 7 0 41 7 0 
42 7 0 43 7 0 44 7 0 
45 7 0 46 7 0 47 7 0 
48 7 0 49 7 0 50 7 0 
0 8 0 1 8 0 2 8 0 
3 8 0 4 8 0 5 8 0 
6 8 0 7 8 0 8 8 0 
9 8 0 10 8 0 11 8 0 
12 8 0 13 8 0 14 8 0 
15 8 0 16 8 0 17 8 0 
18 8 0 19 8 0 20 8 0 
21 8 0 22 8 0 23 8 0 
24 8 0 25 8 0 26 8 0 
27 8 0 28 8 0 29 8 0 
30 8 0 31 8 0 32 8 0 
33 8 0 34 8 0 35 8 0 
36 8 0 37 8 0 38 8 0 
39 8 0 40 8 0 41 8 0 
42 8 0 43 8 0 44 8 0 
45 8 0 46 8 0 47 8 0 
48 8 0 49 8 0 50 8 0 
0 9 0 1 9 0 2 9 0 
3 9 0 4 9 0 5 9 0 
6 9 0 7 9 0 8 9 0 
9 9 0 10 9 0 11 9 0 
12 9 0 13 9 0 14 9 0 
15 9 0 16 9 0 17 9 0 
18 9 0 19 9 0 20 9 0 
21 9 0 22 9 0 23 9 0 
24 9 0 25 9 0 26 9 0 
27 9 0 28 9 0 29 9 0 
30 9 0 31 9 0 32 9 0 
33 9 0 34 9 0 35 9 0 
36 9 0 37 9 0 38 9 0 
39 9 0 40 9 0 41 9 0 
42 9 0 43 9 0 44 9 0 
45 9 0 46 9 0 47 9 0 
48 9 0 49 9 0 50 9 0 
0 10 0 1 10 0 2 10 0 
3 10 0 4 10 0 5 10 0 
6 10 0 7 10 0 8 10 0 
9 10 0 10 10 0 11 10 0 
12 10 0 13 10 0 14 10 0 
15 10 0 16 10 0 17 10 0 
18 10 0 19 10 0 20 10 0 
21 10 0 22 10 0 23 10 0 
24 10 0 25 10 0 26 10 0 
27 10 0 28 10 0 29 10 0 
30 10 0 31 10 0 32 10 0 
33 10 0 34 10 0 35 10 0 
36 10 0 37 10 0 38 10 0 
39 10 0 40 10 0 41 10 0 
42 10 0 43 10 0 44 10 0 
45 10 0 46 10 0 47 10 0 
48 10 0 49 10 0 50 10 0 
0 11 0 1 11 0 2 11 0 
3 11 0 4 11 0 5 11 0 
6 11 0 7 11 0 8 11 0 
9 11 0 10 11 0 11 11 0 
12 11 0 13 11 0 14 11 0 
15 11 0 16 11 0 17 11 0 
18 11 0 19 11 0 20 11 0 
21 11 0 22 11 0 23 11 0 
24 11 0 25 11 0 26 11 0 
27 11 0 28 11 0 29 11 0 
30 11 0 31 11 0 32 11 0 
33 11 0 34 11 0 35 11 0 
36 11 0 37 11 0 38 11 0 
39 11 0 40 11 0 41 11 0 
42 11 0 43 11 0 44 11 0 
45 11 0 46 11 0 47 11 0 
48 11 0 49 11 0 50 11 0 
0 12 0 1 12 0 2 12 0 
3 12 0 4 12 0 5 12 0 
6 12 0 7 12 0 8 12 0 
9 12 0 10 12 0 11 12 0 
12 12 0 13 12 0 14 12 0 
15 12 0 16 12 0 17 12 0 
18 12 0 19 12 0 20 12 0 
21 12 0 22 12 0 23 12 0 
24 12 0 25 12 0 26 12 0 
27 12 0 28 12 0 29 12 0 
30 12 0 31 12 0 32 12 0 
33 12 0 34 12 0 35 12 0 
36 12 0 37 12 0 38 12 0 
39 12 0 40 12 0 41 12 0 
42 12 0 43 12 0 44 12 0 
45 12 0 46 12 0 47 12 0 
48 12 0 49 12 0 50 12 0 
0 13 0 1 13 0 2 13 0 
3 13 0 4 13 0 5 13 0 
6 13 0 7 13 0 8 13 0 
9 13 0 10 13 0 11 13 0 
12 13 0 13 13 0 14 13 0 
15 13 0 16 13 0 17 13 0 
18 13 0 19 13 0 20 13 0 
21 13 0 22 13 0 23 13 0 
24 13 0 25 13 0 26 13 0 
27 13 0 28 13 0 29 13 0 
30 13 0 31 13 0 32 13 0 
33 13 0 34 13 0 35 13 0 
36 13 0 37 13 0 38 13 0 
39 13 0 40 13 0 41 13 0 
42 13 0 43 13 0 44 13 0 
45 13 0 46 13 0 47 13 0 
48 13 0 49 13 0 50 13 0 
0 14 0 1 14 0 2 14 0 
3 14 0 4 14 0 5 14 0 
6 14 0 7 14 0 8 14 0 
9 14 0 10 14 0 11 14 0 
12 14 0 13 14 0 14 14 0 
15 14 0 16 14 0 17 14 0 
18 14 0 19 14 0 20 14 0 
21 14 0 22 14 0 23 14 0 
24 14 0 25 14 0 26 14 0 
27 14 0 28 14 0 29 14 0 
30 14 0 31 14 0 32 14 0 
33 14 0 34 14 0 35 14 0 
36 14 0 37 14 0 38 14 0 
39 14 0 40 14 0 41 14 0 
42 14 0 43 14 0 44 14 0 
45 14 0 46 14 0 47 14 0 
48 14 0 49 14 0 50 14 0 
0 15 0 1 15 0 2 15 0 
3 15 0 4 15 0 5 15 0 
6 15 0 7 15 0 8 15 0 
9 15 0 10 15 0 11 15 0 
12 15 0 13 15 0 14 15 0 
15 15 0 16 15 0 17 15 0 
18 15 0 19 15 0 20 15 0 
21 15 0 22 15 0 23 15 0 
24 15 0 25 15 0 26 15 0 
27 15 0 28 15 0 29 15 0 
30 15 0 31 15 0 32 15 0 
33 15 0 34 15 0 35 15 0 
36 15 0 37 15 0 38 15 0 
39 15 0 40 15 0 41 15 0 
42 15 0 43 15 0 44 15 0 
45 15 0 46 15 0 47 15 0 
48 15 0 49 15 0 50 15 0 
0 16 0 1 16 0 2 16 0 
3 16 0 4 16 0 5 16 0 
6 16 0 7 16 0 8 16 0 
9 16 0 10 16 0 11 16 0 
12 16 0 13 16 0 14 16 0 
15 16 0 16 16 0 17 16 0 
18 16 0 19 16 0 20 16 0 
21 16 0 22 16 0 23 16 0 
24 16 0 25 16 0 26 16 0 
27 16 0 28 16 0 29 16 0 
30 16 0 31 16 0 32 16 0 
33 16 0 34 16 0 35 16 0 
36 16 0 37 16 0 38 16 0 
39 16 0 40 16 0 41 16 0 
42 16 0 43 16 0 44 16 0 
45 16 0 46 16 0 47 16 0 
48 16 0 49 16 0 50 16 0 
0 17 0 1 17 0 2 17 0 
3 17 0 4 17 0 5 17 0 
6 17 0 7 17 0 8 17 0 
9 17 0 10 17 0 11 17 0 
12 17 0 13 17 0 14 17 0 
15 17 0 16 17 0 17 17 0 
18 17 0 19 17 0 20 17 0 
21 17 0 22 17 0 23 17 0 
24 17 0 25 17 0 26 17 0 
27 17 0 28 17 0 29 17 0 
30 17 0 31 17 0 32 17 0 
33 17 0 34 17 0 35 17 0 
36 17 0 37 17 0 38 17 0 
39 17 0 40 17 0 41 17 0 
42 17 0 43 17 0 44 17 0 
45 17 0 46 17 0 47 17 0 
48 17 0 49 17 0 50 17 0 
0 18 0 1 18 0 2 18 0 
3 18 0 4 18 0 5 18 0 
6 18 0 7 18 0 8 18 0 
9 18 0 10 18 0 11 18 0 
12 18 0 13 18 0 14 18 0 
15 18 0 16 18 0 17 18 0 
18 18 0 19 18 0 20 18 0 
21 18 0 22 18 0 23 18 0 
24 18 0 25 18 0 26 18 0 
27 18 0 28 18 0 29 18 0 
30 18 0 31 18 0 32 18 0 
33 18 0 34 18 0 35 18 0 
36 18 0 37 18 0 38 18 0 
39 18 0 40 18 0 41 18 0 
42 18 0 43 18 0 44 18 0 
45 18 0 46 18 0 47 18 0 
48 18 0 49 18 0 50 18 0 
0 19 0 1 19 0 2 19 0 
3 19 0 4 19 0 5 19 0 
6 19 0 7 19 0 8 19 0 
9 19 0 10 19 0 11 19 0 
12 19 0 13 19 0 14 19 0 
15 19 0 16 19 0 17 19 0 
18 19 0 19 19 0 20 19 0 
21 19 0 22 19 0 23 19 0 
24 19 0 25 19 0 26 19 0 
27 19 0 28 19 0 29 19 0 
30 19 0 31 19 0 32 19 0 
33 19 0 34 19 0 35 19 0 
36 19 0 37 19 0 38 19 0 
39 19 0 40 19 0 41 19 0 
42 19 0 43 19 0 44 19 0 
45 19 0 46 19 0 47 19 0 
48 19 0 49 19 0 50 19 0 
0 20 0 1 20 0 2 20 0 
3 20 0 4 20 0 5 20 0 
6 20 0 7 20 0 8 20 0 
9 20 0 10 20 0 11 20 0 
12 20 0 13 20 0 14 20 0 
15 20 0 16 20 0 17 20 0 
18 20 0 19 20 0 20 20 0 
21 20 0 22 20 0 23 20 0 
24 20 0 25 20 0 26 20 0 
27 20 0 28 20 0 29 20 0 
30 20 0 31 20 0 32 20 0 
33 20 0 34 20 0 35 20 0 
36 20 0 37 20 0 38 20 0 
39 20 0 40 20 0 41 20 0 
42 20 0 43 20 0 44 20 0 
45 20 0 46 20 0 47 20 0 
48 20 0 49 20 0 50 20 0 
0 21 0 1 21 0 2 21 0 
3 21 0 4 21 0 5 21 0 
6 21 0 7 21 0 8 21 0 
9 21 0 10 21 0 11 21 0 
12 21 0 13 21 0 14 21 0 
15 21 0 16 21 0 17 21 0 
18 21 0 19 21 0 20 21 0 
21 21 0 22 21 0 23 21 0 
24 21 0 25 21 0 26 21 0 
27 21 0 28 21 0 29 21 0 
30 21 0 31 21 0 32 21 0 
33 21 0 34 21 0 35 21 0 
36 21 0 37 21 0 38 21 0 
39 21 0 40 21 0 41 21 0 
42 21 0 43 21 0 44 21 0 
45 21 0 46 21 0 47 21 0 
48 21 0 49 21 0 50 21 0 
0 22 0 1 22 0 2 22 0 
3 22 0 4 22 0 5 22 0 
6 22 0 7 22 0 8 22 0 
9 22 0 10 22 0 11 22 0 
12 22 0 13 22 0 14 22 0 
15 22 0 16 22 0 17 22 0 
18 22 0 19 22 0 20 22 0 
21 22 0 22 22 0 23 22 0 
24 22 0 25 22 0 26 22 0 
27 22 0 28 22 0 29 22 0 
30 22 0 31 22 0 32 22 0 
33 22 0 34 22 0 35 22 0 
36 22 0 37 22 0 38 22 0 
39 22 0 40 22 0 41 22 0 
42 22 0 43 22 0 44 22 0 
45 22 0 46 22 0 47 22 0 
48 22 0 49 22 0 50 22 0 
0 23 0 1 23 0 2 23 0 
3 23 0 4 23 0 5 23 0 
6 23 0 7 23 0 8 23 0 
9 23 0 10 23 0 11 23 0 
12 23 0 13 23 0 14 23 0 
15 23 0 16 23 0 17 23 0 
18 23 0 19 23 0 20 23 0 
21 23 0 22 23 0 23 23 0 
24 23 0 25 23 0 26 23 0 
27 23 0 28 23 0 29 23 0 
30 23 0 31 23 0 32 23 0 
33 23 0 34 23 0 35 23 0 
36 23 0 37 23 0 38 23 0 
39 23 0 40 23 0 41 23 0 
42 23 0 43 23 0 44 23 0 
45 23 0 46 23 0 47 23 0 
48 23 0 49 23 0 50 23 0 
0 24 0 1 24 0 2 24 0 
3 24 0 4 24 0 5 24 0 
6 24 0 7 24 0 8 24 0 
9 24 0 10 24 0 11 24 0 
12 24 0 13 24 0 14 24 0 
15 24 0 16 24 0 17 24 0 
18 24 0 19 24 0 20 24 0 
21 24 0 22 24 0 23 24 0 
24 24 0 25 24 0 26 24 0 
27 24 0 28 24 0 29 24 0 
30 24 0 31 24 0 32 24 0 
33 24 0 34 24 0 35 24 0 
36 24 0 37 24 0 38 24 0 
39 24 0 40 24 0 41 24 0 
42 24 0 43 24 0 44 24 0 
45 24 0 46 24 0 47 24 0 
48 24 0 49 24 0 50 24 0 
0 25 0 1 25 0 2 25 0 
3 25 0 4 25 0 5 25 0 
[...]
CELL_DATA 2500
SCALARS $\mu_{AB} double
LOOKUP_TABLE default
-0.00095676284494 -0.00075298009928 -0.00072327467659 -0.0007873117928 -0.00094466940899 -0.0012927012992 -0.0016082841788 -0.0017121349351 -0.001774777542 
-0.0017899455133 -0.0017453602713 -0.001648338868 -0.0013324419735 -0.00082311273703 -0.00076674258071 -0.00083659528789 -0.000904996734 -0.00084477397738 
-0.00076814198864 -0.00076728837562 -0.00087279417818 -0.00097510947137 -0.0010073298756 -0.001014895728 -0.00099534347268 -0.00096098074191 -0.00096856099023 
-0.0010246717705 -0.0010405241092 -0.001040997515 -0.0010361864941 -0.0010238795547 -0.00099935352438 -0.00097384838271 -0.00095619702837 -0.00091754591824 
-0.00089941822714 -0.00089573806243 -0.00089666436003 -0.00089936871794 -0.0009140297765 -0.00099038557795 -0.001079252241 -0.0011528178861 -0.0012041225545 
-0.0012212778337 -0.0012284791148 -0.0012232580037 -0.0012047125154 -0.0011602996443 -0.0010936595012 -0.00095267087922 -0.00093532142631 -0.00096356706941 
-0.0010486925293 -0.0013005564441 -0.0015903392387 -0.001702789896 -0.0017515729303 -0.0017491184654 -0.0017077038639 -0.0016202583598 -0.0013746897942 
-0.00093909866684 -0.00086094560014 -0.00092610915543 -0.00096171189261 -0.00093056920257 -0.00086108568833 -0.00085467304678 -0.00087994976184 -0.00093851720243 
-0.0010004326316 -0.0010158014287 -0.0010029596025 -0.00098997454428 -0.001026963657 -0.0010417438178 -0.001044794731 -0.0010421770337 -0.0010359630743 
-0.0010286013442 -0.0010072360041 -0.0009676225385 -0.00092221055718 -0.00090326814262 -0.00089649224745 -0.00089249067104 -0.00089035683409 -0.00088995722035 
-0.00089712512985 -0.00092899497266 -0.0010621447771 -0.0011763824602 -0.0012101840377 -0.0012201269333 -0.001222762614 -0.0012160766889 -0.0012047103535 
-0.0011839075042 -0.0010966362483 -0.0010144758452 -0.00099534776362 -0.00099784662216 -0.0010226042261 -0.0011180854645 -0.0014161873842 -0.001606557672 
-0.001641374513 -0.0015982113076 -0.0015380029733 -0.0014179048719 -0.0012432039792 -0.0010360478719 -0.00092463437248 -0.00095965766336 -0.00099102874543 
-0.00096508779512 -0.00094039084813 -0.00092473686317 -0.00088353301618 -0.000895833082 -0.00095779148401 -0.0010016946722 -0.0010146581596 -0.0010229635989 
-0.0010346688506 -0.001035909849 -0.001038108689 -0.0010335054431 -0.0010233168361 -0.0010197154354 -0.0010123164088 -0.00096849791121 -0.00091765217115 
-0.00090863618982 -0.00090397816642 -0.00090093933613 -0.00088973193445 -0.00088763006184 -0.00089527053063 -0.00091715254093 -0.0010473426958 -0.0011621976823 
-0.0011999517159 -0.0012080732512 -0.0012050897429 -0.0012029820885 -0.0011986855389 -0.0011811862966 -0.0010465382092 -0.0010212451375 -0.0010071637457 
-0.0010038644036 -0.0010119963078 -0.0010360952881 -0.0011425349835 -0.0013441245402 -0.0013453491131 -0.0012330654266 -0.001141606251 -0.0010550281439 
-0.001040301662 -0.0010271756753 -0.0010143572981 -0.0010206193983 -0.001033054831 -0.0010312812914 -0.0010146416568 -0.00094747935125 -0.00089623325999 
-0.00090374114351 -0.00096681679316 -0.0010042001358 -0.0010301399687 -0.0010265187487 -0.0010185994743 -0.0010122492439 -0.00099447621686 -0.00097419129424 
-0.00098978791743 -0.00099984682339 -0.00099866601438 -0.00097099699583 -0.00092657320152 -0.00091714722187 -0.00091456130073 -0.00091429980546 -0.00090359852171 
-0.00089653886859 -0.00090635856174 -0.00094741900746 -0.0010742488261 -0.0011328580014 -0.0011798324569 -0.0011941646677 -0.0011938732068 -0.0011933682981 
-0.001188509354 -0.0011509820537 -0.00104118173 -0.0010294679181 -0.0010172871744 -0.0010043752689 -0.0010025448415 -0.001009305054 -0.0010256008863 
-0.0010569702318 -0.0010210631465 -0.001011640158 -0.00099020060682 -0.00096696027397 -0.00096780012444 -0.00099317948202 -0.0010514491778 -0.0010908270979 
-0.0011003229663 -0.0010895017927 -0.0010705470507 -0.001007292991 -0.00094072410181 -0.00096512099674 -0.0010332399332 -0.0010557185554 -0.0010625653639 
-0.001032640306 -0.00099346729748 -0.00097886324739 -0.00094764287964 -0.00093442742077 -0.00095355374891 -0.00097253049515 -0.00097910662298 -0.0009732281306 
-0.00094382678922 -0.00092429568589 -0.00092022781104 -0.00091648205949 -0.00091155548915 -0.00091293558203 -0.00094102364067 -0.0010655367246 -0.0011083681504 
-0.0011254005734 -0.0011420811287 -0.0011739962557 -0.001185524288 -0.0011850133938 -0.0011662409608 -0.0010910221052 -0.0010393503469 -0.0010311308768 
-0.0010197956523 -0.0009955456171 -0.0009900517208 -0.00099313426598 -0.00099184239566 -0.0009646507079 -0.00095383888109 -0.00095434255724 -0.00096049859146 
-0.00095509686756 -0.00096686618194 -0.00098188279805 -0.001054716499 -0.0011161323249 -0.0011166818371 -0.0010896744024 -0.0010671203985 -0.0010084908825 
-0.00095776944133 -0.0010237533257 -0.0010786799854 -0.0011010804338 -0.0010988981449 -0.0010572307019 -0.00099376995028 -0.00095848840297 -0.00092841858757 
-0.0009198783325 -0.00093502731492 -0.00095624075845 -0.00097847638074 -0.00098331431644 -0.00096830338227 -0.00094412706557 -0.0009282199924 -0.00092355228169 
-0.00092284968801 -0.00094293265512 -0.0010623148589 -0.0011115061057 -0.0011212574566 -0.0011282981128 -0.0011364762811 -0.001143201534 -0.0011570918469 
-0.0011532693344 -0.0011237812609 -0.0010672653068 -0.0010317009515 -0.001024135959 -0.0010099742432 -0.00099450985436 -0.00098713651303 -0.00098709933138 
-0.00098334448849 -0.00095878338058 -0.00095443999105 -0.00096379883328 -0.00099043494369 -0.00098796312269 -0.00098970973511 -0.0010012036849 -0.0010676595236 
-0.001132243479 -0.0011176011681 -0.0010438941995 -0.0010083712666 -0.00093531420351 -0.00090919307761 -0.00098339982787 -0.0010625345435 -0.0010887879317 
-0.0010962654672 -0.0010668395936 -0.0010186969508 -0.00098595997701 -0.00095127172376 -0.00094290481814 -0.00095759946221 -0.00097616452262 -0.00099271237631 
-0.00099506766631 -0.00098927647392 -0.00098410920852 -0.00097191632935 -0.00095138693548 -0.00095889048628 -0.0010473915018 -0.0011178859744 -0.0011331914692 
-0.0011318307676 -0.0011337069655 -0.001137920162 -0.001138417618 -0.0011336306647 -0.0011115328594 -0.0010904157088 -0.0010581677738 -0.0010193219376 
-0.0010159302639 -0.0010051159969 -0.00099583399431 -0.00099307060523 -0.00099815425237 -0.0010022802584 -0.00098186120016 -0.00097879997244 -0.00099673375477 
-0.0010174666808 -0.0010189779172 -0.0010152477294 -0.0010306269204 -0.0011138644732 -0.001179349525 -0.0011726863078 -0.001073186997 -0.00096081419171 
-0.00087885354775 -0.000862753833 -0.00091958399115 -0.0010081553873 -0.0010507825336 -0.0010729334971 -0.0010575468525 -0.0010307659267 -0.0010109885397 
-0.00098437486198 -0.00098071951145 -0.0010016136635 -0.0010097788066 -0.0010086798096 -0.0010003684142 -0.0009967065958 -0.00099909541853 -0.001000311478 
-0.00099917945991 -0.00101327108 -0.0010924923835 -0.0011343122877 -0.0011429174842 -0.0011407792347 -0.0011344926046 -0.0011347054846 -0.0011296976027 
-0.0011045022634 -0.001058085941 -0.0010601850826 -0.0010441968461 -0.00099340696175 -0.00098850545221 -0.00099929134577 -0.0010040506486 -0.0010303654855 
-0.0010620197777 -0.0010512092314 -0.001019940825 -0.0010030191703 -0.0010174305128 -0.0010306130686 -0.0010324430219 -0.0010332228886 -0.0010871589673 
-0.0011860723885 -0.0012380803629 -0.0012397676587 -0.0011919474643 -0.0010419854122 -0.00088835544254 -0.00085598767129 -0.00090495849266 -0.0009705607528 
-0.001011237899 -0.0010445828291 -0.0010549480628 -0.0010520149488 -0.0010401740554 -0.0010157792512 -0.001016715271 -0.0010380476364 -0.0010404466461 
-0.0010235433956 -0.00099900984869 -0.00099651590855 -0.0010001622555 -0.0010025773071 -0.0010015313729 -0.0010055437874 -0.0010598466641 -0.0011271154973 
-0.0011390414504 -0.0011352649448 -0.0011298252627 -0.001125067419 -0.0011062115582 -0.001028526475 -0.0010294795397 -0.0010475060983 -0.001033076452 
-0.00095645414018 -0.00094794417306 -0.00097593904844 -0.0010212576189 -0.0010748200626 -0.0011028046057 -0.0010913373204 -0.0010595750039 -0.001025858017 
-0.0010197090309 -0.0010261580904 -0.0010270604214 -0.00105013781 -0.0011510420374 -0.0012172975778 -0.0012518860034 -0.0012543484314 -0.0012235971872 
-0.0011469116706 -0.00096171090951 -0.00085192464458 -0.00086935024584 -0.00091240793072 -0.00095281999382 -0.0010069880524 -0.0010541705674 -0.0010622806771 
-0.0010606645284 -0.0010598912244 -0.0010629745034 -0.0010657269485 -0.0010619031572 -0.0010252345829 -0.00099755516181 -0.00099377926307 -0.00099624298371 
-0.00099714693695 -0.00099189541342 -0.00099199266215 -0.0010087888627 -0.0010801476305 -0.0011198657054 -0.0011191872486 -0.0011143131475 -0.0011022330666 
-0.0010163329076 -0.00097089325181 -0.00098933123138 -0.0010138079158 -0.00099674639894 -0.00092979857216 -0.0009196910991 -0.00096059068191 -0.0010123085577 
-0.001070555387 -0.0010998742402 -0.0010892032926 -0.0010720329735 -0.0010300236767 -0.00099496922093 -0.00096803367143 -0.00095099031594 -0.0010003682897 
-0.0011438657494 -0.0011962094132 -0.0012398293968 -0.0012458314986 -0.0012051341642 -0.0011177084564 -0.00092508465699 -0.00083316731037 -0.00085879146028 
-0.00090262544741 -0.00093695330441 -0.00096207644103 -0.0010333060151 -0.0010607274527 -0.0010659410162 -0.001071023737 -0.0010775837627 -0.0010787834965 
-0.001070935215 -0.0010181508994 -0.00099710810349 -0.00099244962159 -0.00099039253608 -0.00097787313516 -0.00097629372219 -0.00097622194591 -0.00098011107233 
-0.0010047848851 -0.0010306099598 -0.0010555176606 -0.0010588965839 -0.0010203674984 -0.00094116771941 -0.00093102489692 -0.00095459825768 -0.00098276597158 
-0.00096173201826 -0.00094426698527 -0.00092272112061 -0.00093522306992 -0.00097481443226 -0.0010366600501 -0.0010728151552 -0.0010529796187 -0.0010428122108 
-0.0010052078967 -0.00095591039255 -0.00093015833372 -0.00090819178863 -0.00091638308795 -0.0010463391747 -0.0011439501327 -0.0012000159966 -0.0012050562772 
-0.0011677881714 -0.0010493096307 -0.00087203369577 -0.00080862731342 -0.00083679886754 -0.00090816494927 -0.00094260491665 -0.0009548361152 -0.00098250452176 
-0.0010443237974 -0.0010587174907 -0.0010643688184 -0.0010717960544 -0.0010752303054 -0.0010602733741 -0.0010144932745 -0.00099650178315 -0.00099166132788 
-0.00098526029242 -0.00097242737405 -0.00096668074099 -0.00096439689614 -0.00095690678402 -0.00093240257285 -0.00091573769993 -0.00091033017751 -0.00090907227595 
-0.00092339561942 -0.00092691179479 -0.00093402520153 -0.00096761649089 -0.0010117880737 -0.00099316291459 -0.00099728016439 -0.00096229986583 -0.00095503050799 
-0.00098058217671 -0.0010143232708 -0.0010260135112 -0.0010144998535 -0.0010041667669 -0.00096942143989 -0.00095003917658 -0.00092410170104 -0.00089295779497 
-0.00087944611864 -0.00093297684971 -0.0010818376999 -0.0011684005468 -0.0011898507452 -0.0011520711918 -0.0010139311396 -0.00085093145809 -0.00080265482813 
-0.00082586025919 -0.00093854602953 -0.00095674651708 -0.00095939585485 -0.00096432312049 -0.00099524606707 -0.001026771135 -0.0010412846797 -0.0010513884422 
-0.0010497279032 -0.0010364758616 -0.0010155194529 -0.00099694738161 -0.00099042487993 -0.00098280439142 -0.00097297549678 -0.00096450535458 -0.00095712786692 
-0.00092597330938 -0.00090991862903 -0.00090049796395 -0.00089199005941 -0.00088692760472 -0.00089112152001 -0.00092594977801 -0.00097285676417 -0.0010126322563 
-0.0010506759492 -0.0010447307411 -0.0010433824286 -0.0010294284261 -0.0010148016536 -0.001032425404 -0.0010442272035 -0.0010236795615 -0.0010013112767 
-0.00098916032865 -0.00096927108923 -0.00096245315435 -0.00094128042259 -0.00088581078038 -0.00084898782077 -0.00086952526479 -0.00098075352024 -0.0011317966307 
-0.001171466495 -0.0011366753423 -0.00096092786661 -0.00084806142054 -0.00083957964027 -0.00089593657727 -0.00096886085196 -0.0009721330502 -0.00096709648788 
-0.00095991974381 -0.00094207180549 -0.00092857172201 -0.00093969231835 -0.00096110435199 -0.00098698201819 -0.0010059658487 -0.001007129142 -0.00099787559366 
-0.00098922862949 -0.00098153799456 -0.00097138206682 -0.00095963929241 -0.00093491355301 -0.00091459801443 -0.00090942111505 -0.00090148974139 -0.00088896378176 
-0.0008838036384 -0.00088833657581 -0.00090032126415 -0.00097268175649 -0.0010296156091 -0.0010735128567 -0.0010752742455 -0.001169537296 -0.0011822323858 
-0.0011051204471 -0.0010963698642 -0.0010901400791 -0.0010568521399 -0.0010214689212 -0.00099503698265 -0.00097858654691 -0.00097470718664 -0.00096659921133 
-0.00089731134103 -0.00084677032793 -0.00084300841629 -0.00088577933599 -0.0010624176044 -0.0011283648289 -0.001084209347 -0.00095158663792 -0.00087916404625 
-0.00089095872508 -0.0009399350906 -0.00097578842189 -0.00098294546699 -0.00097527597942 -0.00094553704084 -0.00091832145957 -0.0009125623262 -0.00092470263599 
-0.00094713937675 -0.00096909442204 -0.00098286780109 -0.00099229658865 -0.0009856071944 -0.00097531293982 -0.00096763040004 -0.00095741131144 -0.00094260171033 
-0.00092116163081 -0.00091305105193 -0.00091027700537 -0.00090667981269 -0.00089254635898 -0.00089103773441 -0.00089477472465 -0.00090143798208 -0.00094555874432 
-0.0010236783308 -0.0010813067674 -0.0011178076451 -0.0012514698983 -0.0013302774867 -0.0013011160359 -0.0011892101062 -0.0011366126768 -0.0010873456539 
-0.0010544775128 -0.0010184818774 -0.00098981370045 -0.0009829138345 -0.00096992945292 -0.00092602640529 -0.00087743316265 -0.0008539443155 -0.00086990835886 
-0.00095864935406 -0.00099649864938 -0.00098182229147 -0.00094201462922 -0.00090870817695 -0.00091190352125 -0.00095512024275 -0.00098294384317 -0.00098610889627 
-0.00096938413872 -0.00093160921962 -0.00092244529857 -0.0009153565031 -0.00092595746761 -0.00095618028264 -0.00097524139199 -0.00098001288682 -0.00097772820154 
-0.00096063991503 -0.00095092512811 -0.00094905394631 -0.00094015817462 -0.00092958637019 -0.00091644958255 -0.00091075519056 -0.00090923901771 -0.00090845393893 
-0.0009087243869 -0.00090465969799 -0.00090225758632 -0.00090505457683 -0.0009274360879 -0.00098296448552 -0.0010514366994 -0.001140834825 -0.0011613890541 
-0.0013355783283 -0.0014274646083 -0.0013954671442 -0.0012921095754 -0.0011765574603 -0.0010917026995 -0.001056805112 -0.001022213821 -0.0009939590141 
-0.00097697252763 -0.00094743384164 -0.00090797362554 -0.00088164789491 -0.00088957058845 -0.00090559159774 -0.00090637236475 -0.00091101513601 -0.00092073414325 
-0.00092684410715 -0.00093970271027 -0.00096840692307 -0.00099223953307 -0.00099748457277 -0.00097686405488 -0.00094810456465 -0.00094218296673 -0.00093494081114 
-0.00093621239171 -0.00096799909952 -0.00097721970675 -0.00097770251227 -0.00096153703587 -0.00093692460089 -0.00094286794651 -0.00094450939844 -0.00093638564737 
-0.00092555005173 -0.00091858694869 -0.0009106412778 -0.00090924812985 -0.00090983979512 -0.00091098215208 -0.00091007942442 -0.00090677344456 -0.00090129742307 
-0.00088412191863 -0.00088236547952 -0.0009240741113 -0.0010187844595 -0.0010218955994 -0.0011477759668 -0.0013504696584 -0.0013915455865 -0.0012763881969 
-0.0010809024062 -0.0009783593966 -0.0010576378031 -0.0011164821398 -0.0010564181219 -0.0009968456135 -0.00095991106402 -0.00092315117973 -0.00090728149721 
-0.00090488614041 -0.00089903862686 -0.0008962202157 -0.00090262031375 -0.00091656775213 -0.00093012056009 -0.00095833552459 -0.00099710154991 -0.0010266071944 
-0.0010366741368 -0.0010153247857 -0.00097355837845 -0.00096404590064 -0.0009627971059 -0.00096260375017 -0.00096380183467 -0.00096956144645 -0.00096579583237 
-0.00093103764427 -0.00092002431201 -0.00092961555948 -0.00093532716519 -0.00092861745476 -0.00092189820398 -0.00092033182291 -0.00092066065355 -0.00091795660431 
-0.0009200897029 -0.00092200261201 -0.00091879729078 -0.00090939239399 -0.00086864110877 -0.00081546123941 -0.00081131067032 -0.00087536572822 -0.00095789687714 
-0.00097070856692 -0.0009988481341 -0.0011147311745 -0.001168685628 -0.00096589798516 -0.0006559139067 -0.00082214153597 -0.0010423297251 -0.0011644957352 
-0.00118415892 -0.001106438876 -0.0010254341014 -0.00096775685464 -0.00092440641353 -0.00091418932159 -0.00090472075061 -0.00089959081159 -0.00090869807045 
-0.00092385860739 -0.00093574941163 -0.0009614443887 -0.0010262683996 -0.0010706769723 -0.0010863357154 -0.0010790101295 -0.0010216824474 -0.0009821459221 
-0.00097205734943 -0.00096376501444 -0.00095887146269 -0.00095970994698 -0.00094997191102 -0.00090893279717 -0.0009047479329 -0.00091534618289 -0.00092860375523 
-0.00093234276496 -0.00093089436223 -0.00093179543921 -0.00094748113554 -0.00097848775395 -0.00097274691088 -0.00096887680838 -0.00096300564877 -0.0009279328273 
-0.00082934921484 -0.00078749607528 -0.00079252234849 -0.00085049436123 -0.0009294213012 -0.00090554439486 -0.00090325652505 -0.00091455569423 -0.00081056635402 
-0.00043068770793 -0.00043739917297 -0.00070678964724 -0.00098787516214 -0.0011547377618 -0.0012061913221 -0.0011834038743 -0.0010905172058 -0.0010011127646 
-0.00093726500218 -0.00092733411192 -0.00091643075552 -0.00090823922602 -0.00092305557803 -0.00093555387514 -0.00094873527234 -0.00097214549628 -0.0010626978845 
-0.0010914327549 -0.0010983141475 -0.0010991033673 -0.0010884739321 -0.0010251202192 -0.00098156871868 -0.00096516783871 -0.00095692975908 -0.00095417047402 
-0.00093172886188 -0.00090391475596 -0.00090319726721 -0.00091954077195 -0.00095092156015 -0.00096403632225 -0.000953781031 -0.00095818493822 -0.0010053505808 
-0.0011071008152 -0.0011759230706 -0.0011915744641 -0.0011440396226 -0.0010113911635 -0.00083291775531 -0.00080323791476 -0.00079145857839 -0.0008254027537 
-0.00091215095253 -0.00081178891149 -0.00081737638712 -0.00079747366154 -0.00044339711349 -0.00022948888342 -0.00021142509773 -0.00044004474704 -0.00088852319585 
-0.001075443278 -0.0011280652462 -0.0011344732544 -0.0010913254258 -0.0010154804897 -0.00094493980636 -0.00093268561573 -0.00092235904759 -0.00091539279491 
-0.00092644899985 -0.00093858810821 -0.00095508075567 -0.0010019333551 -0.0010813074649 -0.0010967704675 -0.001102662361 -0.0011057152731 -0.0011029457427 
-0.0010875397118 -0.0010228419511 -0.00097126049843 -0.00095320187208 -0.00094725864204 -0.00093143329641 -0.00091351700722 -0.00091750078392 -0.00093863989687 
-0.00096520266382 -0.00097973342318 -0.00097823405422 -0.00099358556026 -0.0010998913416 -0.0012040041308 -0.0012463877368 -0.0012593450863 -0.0012419982526 
-0.0011405645132 -0.00090399813074 -0.00086396613457 -0.00085162875725 -0.00085680431525 -0.00081662322788 -0.0007862334832 -0.0008015091626 -0.00083092345389 
-0.00058314099303 -0.00038391835411 -0.00019494126623 -0.00027872543241 -0.00050113210538 -0.00072574757732 -0.00092787931492 -0.0009727512633 -0.0010248237981 
-0.001014563937 -0.00095103420452 -0.00092701814296 -0.00091573416431 -0.00090958640884 -0.0009158690382 -0.00093102484952 -0.00095229884511 -0.0010462643725 
-0.0010885060827 -0.001100245427 -0.0011030408292 -0.0011072399352 -0.0011052164322 -0.0010949991992 -0.0010503215028 -0.00095999611208 -0.00093270722701 
-0.0009420079093 -0.00092986431583 -0.00090607002708 -0.00092045829933 -0.00094537322349 -0.00097370020379 -0.0009899838468 -0.00099704987632 -0.0010601716985 
-0.0011718558392 -0.0012140654739 -0.001249394084 -0.0012689389164 -0.0012623076009 -0.0012184066906 -0.0010170297178 -0.00093066107979 -0.00091564968082 
-0.00089112738056 -0.00081031663242 -0.00084479081428 -0.00095567558134 -0.0012648668188 -0.001125450122 -0.00085103575969 -0.00061633227478 -0.00029039688158 
-0.00019846531837 -0.00040801952124 -0.00064883415515 -0.00078572972304 -0.00098323898999 -0.0010126794037 -0.00096110552183 -0.0009156621779 -0.00090348584739 
-0.00089786462406 -0.00090596475949 -0.00092540610378 -0.0009658392667 -0.0010675797495 -0.0010961168349 -0.0011052826972 -0.0011083325 -0.0011072946017 
-0.0011027312887 -0.0010874961976 -0.0010085711306 -0.00090321178358 -0.00091707288587 -0.00093547706451 -0.00092353426991 -0.00088861441392 -0.00088528456773 