# vtk DataFile Version 4.2
vtk output
ASCII
DATASET UNSTRUCTURED_GRID
POINTS 2601 double
0 0 0 1 0 0 2 0 0 
3 0 0 4 0 0 5 0 0 
6 0 0 7 0 0 8 0 0 
9 0 0 10 0 0 11 0 0 
12 0 0 13 0 0 14 0 0 
15 0 0 16 0 0 17 0 0 
18 0 0 19 0 0 20 0 0 
21 0 0 22 0 0 23 0 0 
24 0 0 25 0 0 26 0 0 
27 0 0 28 0 0 29 0 0 
30 0 0 31 0 0 32 0 0 
33 0 0 34 0 0 35 0 0 
36 0 0 37 0 0 38 0 0 
39 0 0 40 0 0 41 0 0 
42 0 0 43 0 0 44 0 0 
45 0 0 46 0 0 47 0 0 
48 0 0 49 0 0 50 0 0 
0 1 0 1 1 0 2 1 0 
3 1 0 4 1 0 5 1 0 
6 1 0 7 1 0 8 1 0 
9 1 0 10 1 0 11 1 0 
12 1 0 13 1 0 14 1 0 
15 1 0 16 1 0 17 1 0 
18 1 0 19 1 0 20 1 0 
21 1 0 22 1 0 23 1 0 
24 1 0 25 1 0 26 1 0 
27 1 0 28 1 0 29 1 0 
30 1 0 31 1 0 32 1 0 
33 1 0 34 1 0 35 1 0 
36 1 0 37 1 0 38 1 0 
39 1 0 40 1 0 41 1 0 
42 1 0 43 1 0 44 1 0 
45 1 0 46 1 0 47 1 0 
48 1 0 49 1 0 50 1 0 
0 2 0 1 2 0 2 2 0 
3 2 0 4 2 0 5 2 0 
6 2 0 7 2 0 8 2 0 
9 2 0 10 2 0 11 2 0 
12 2 0 13 2 0 14 2 0 
15 2 0 16 2 0 17 2 0 
18 2 0 19 2 0 20 2 0 
21 2 0 22 2 0 23 2 0 
24 2 0 25 2 0 26 2 0 
27 2 0 28 2 0 29 2 0 
30 2 0 31 2 0 32 2 0 
33 2 0 34 2 0 35 2 0 
36 2 0 37 2 0 38 2 0 
39 2 0 40 2 0 41 2 0 
42 2 0 43 2 0 44 2 0 
45 2 0 46 2 0 47 2 0 
48 2 0 49 2 0 50 2 0 
0 3 0 1 3 0 2 3 0 
3 3 0 4 3 0 5 3 0 
6 3 0 7 3 0 8 3 0 
9 3 0 10 3 0 11 3 0 
12 3 0 13 3 0 14 3 0 
15 3 0 16 3 0 17 3 0 
18 3 0 19 3 0 20 3 0 
21 3 0 22 3 0 23 3 0 
24 3 0 25 3 0 26 3 0 
27 3 0 28 3 0 29 3 0 
30 3 0 31 3 0 32 3 0 
33 3 0 34 3 0 35 3 0 
36 3 0 37 3 0 38 3 0 
39 3 0 40 3 0 41 3 0 
42 3 0 43 3 0 44 3 0 
45 3 0 46 3 0 47 3 0 
48 3 0 49 3 0 50 3 0 
0 4 0 1 4 0 2 4 0 
3 4 0 4 4 0 5 4 0 
6 4 0 7 4 0 8 4 0 
9 4 0 10 4 0 11 4 0 
12 4 0 13 4 0 14 4 0 
15 4 0 16 4 0 17 4 0 
18 4 0 19 4 0 20 4 0 
21 4 0 22 4 0 23 4 0 
24 4 0 25 4 0 26 4 0 
27 4 0 28 4 0 29 4 0 
30 4 0 31 4 0 32 4 0 
33 4 0 34 4 0 35 4 0 
36 4 0 37 4 0 38 4 0 
39 4 0 40 4 0 41 4 0 
42 4 0 43 4 0 44 4 0 
45 4 0 46 4 0 47 4 0 
48 4 0 49 4 0 50 4 0 
0 5 0 1 5 0 2 5 0 
3 5 0 4 5 0 5 5 0 
6 5 0 7 5 0 8 5 0 
9 5 0 10 5 0 11 5 0 
12 5 0 13 5 0 14 5 0 
15 5 0 16 5 0 17 5 0 
18 5 0 19 5 0 20 5 0 
21 5 0 22 5 0 23 5 0 
24 5 0 25 5 0 26 5 0 
27 5 0 28 5 0 29 5 0 
30 5 0 31 5 0 32 5 0 
33 5 0 34 5 0 35 5 0 
36 5 0 37 5 0 38 5 0 
39 5 0 40 5 0 41 5 0 
42 5 0 43 5 0 44 5 0 
45 5 0 46 5 0 47 5 0 
48 5 0 49 5 0 50 5 0 
0 6 0 1 6 0 2 6 0 
3 6 0 4 6 0 5 6 0 
6 6 0 7 6 0 8 6 0 
9 6 0 10 6 0 11 6 0 
12 6 0 13 6 0 14 6 0 
15 6 0 16 6 0 17 6 0 
18 6 0 19 6 0 20 6 0 
21 6 0 22 6 0 23 6 0 
24 6 0 25 6 0 26 6 0 
27 6 0 28 6 0 29 6 0 
30 6 0 31 6 0 32 6 0 
33 6 0 34 6 0 35 6 0 
36 6 0 37 6 0 38 6 0 
39 6 0 40 6 0 41 6 0 
42 6 0 43 6 0 44 6 0 
45 6 0 46 6 0 47 6 0 
48 6 0 49 6 0 50 6 0 
0 7 0 1 7 0 2 7 0 
3 7 0 4 7 0 5 7 0 
6 7 0 7 7 0 8 7 0 
9 7 0 10 7 0 11 7 0 
12 7 0 13 7 0 14 7 0 
15 7 0 16 7 0 17 7 0 
18 7 0 19 7 0 20 7 0 
21 7 0 22 7 0 23 7 0 
24 7 0 25 7 0 26 7 0 
27 7 0 28 7 0 29 7 0 
30 7 0 31 7 0 32 7 0 
33 7 0 34 7 0 35 7 0 
36 7 0 37 7 0 38 7 0 
39 7 0 40 7 0 41 7 0 
42 7 0 43 7 0 44 7 0 
45 7 0 46 7 0 47 7 0 
48 7 0 49 7 0 50 7 0 
0 8 0 1 8 0 2 8 0 
3 8 0 4 8 0 5 8 0 
6 8 0 7 8 0 8 8 0 
9 8 0 10 8 0 11 8 0 
12 8 0 13 8 0 14 8 0 
15 8 0 16 8 0 17 8 0 
18 8 0 19 8 0 20 8 0 
21 8 0 22 8 0 23 8 0 
24 8 0 25 8 0 26 8 0 
27 8 0 28 8 0 29 8 0 
30 8 0 31 8 0 32 8 0 
33 8 0 34 8 0 35 8 0 
36 8 0 37 8 0 38 8 0 
39 8 0 40 8 0 41 8 0 
42 8 0 43 8 0 44 8 0 
45 8 0 46 8 0 47 8 0 
48 8 0 49 8 0 50 8 0 
0 9 0 1 9 0 2 9 0 
3 9 0 4 9 0 5 9 0 
6 9 0 7 9 0 8 9 0 
9 9 0 10 9 0 11 9 0 
12 9 0 13 9 0 14 9 0 
15 9 0 16 9 0 17 9 0 
18 9 0 19 9 0 20 9 0 
21 9 0 22 9 0 23 9 0 
24 9 0 25 9 0 26 9 0 
27 9 0 28 9 0 29 9 0 
30 9 0 31 9 0 32 9 0 
33 9 0 34 9 0 35 9 0 
36 9 0 37 9 0 38 9 0 
39 9 0 40 9 0 41 9 0 
42 9 0 43 9 0 44 9 0 
45 9 0 46 9 0 47 9 0 
48 9 0 49 9 0 50 9 0 
0 10 0 1 10 0 2 10 0 
3 10 0 4 10 0 5 10 0 
6 10 0 7 10 0 8 10 0 
9 10 0 10 10 0 11 10 0 
12 10 0 13 10 0 14 10 0 
15 10 0 16 10 0 17 10 0 
18 10 0 19 10 0 20 10 0 
21 10 0 22 10 0 23 10 0 
24 10 0 25 10 0 26 10 0 
27 10 0 28 10 0 29 10 0 
30 10 0 31 10 0 32 10 0 
33 10 0 34 10 0 35 10 0 
36 10 0 37 10 0 38 10 0 
39 10 0 40 10 0 41 10 0 
42 10 0 43 10 0 44 10 0 
45 10 0 46 10 0 47 10 0 
48 10 0 49 10 0 50 10 0 
0 11 0 1 11 0 2 11 0 
3 11 0 4 11 0 5 11 0 
6 11 0 7 11 0 8 11 0 
9 11 0 10 11 0 11 11 0 
12 11 0 13 11 0 14 11 0 
15 11 0 16 11 0 17 11 0 
18 11 0 19 11 0 20 11 0 
21 11 0 22 11 0 23 11 0 
24 11 0 25 11 0 26 11 0 
27 11 0 28 11 0 29 11 0 
30 11 0 31 11 0 32 11 0 
33 11 0 34 11 0 35 11 0 
36 11 0 37 11 0 38 11 0 
39 11 0 40 11 0 41 11 0 
42 11 0 43 11 0 44 11 0 
45 11 0 46 11 0 47 11 0 
48 11 0 49 11 0 50 11 0 
0 12 0 1 12 0 2 12 0 
3 12 0 4 12 0 5 12 0 
6 12 0 7 12 0 8 12 0 
9 12 0 10 12 0 11 12 0 
12 12 0 13 12 0 14 12 0 
15 12 0 16 12 0 17 12 0 
18 12 0 19 12 0 20 12 0 
21 12 0 22 12 0 23 12 0 
24 12 0 25 12 0 26 12 0 
27 12 0 28 12 0 29 12 0 
30 12 0 31 12 0 32 12 0 
33 12 0 34 12 0 35 12 0 
36 12 0 37 12 0 38 12 0 
39 12 0 40 12 0 41 12 0 
42 12 0 43 12 0 44 12 0 
45 12 0 46 12 0 47 12 0 
48 12 0 49 12 0 50 12 0 
0 13 0 1 13 0 2 13 0 
3 13 0 4 13 0 5 13 0 
6 13 0 7 13 0 8 13 0 
9 13 0 10 13 0 11 13 0 
12 13 0 13 13 0 14 13 0 
15 13 0 16 13 0 17 13 0 
18 13 0 19 13 0 20 13 0 
21 13 0 22 13 0 23 13 0 
24 13 0 25 13 0 26 13 0 
27 13 0 28 13 0 29 13 0 
30 13 0 31 13 0 32 13 0 
33 13 0 34 13 0 35 13 0 
36 13 0 37 13 0 38 13 0 
39 13 0 40 13 0 41 13 0 
42 13 0 43 13 0 44 13 0 
45 13 0 46 13 0 47 13 0 
48 13 0 49 13 0 50 13 0 
0 14 0 1 14 0 2 14 0 
3 14 0 4 14 0 5 14 0 
6 14 0 7 14 0 8 14 0 
9 14 0 10 14 0 11 14 0 
12 14 0 13 14 0 14 14 0 
15 14 0 16 14 0 17 14 0 
18 14 0 19 14 0 20 14 0 
21 14 0 22 14 0 23 14 0 
24 14 0 25 14 0 26 14 0 
27 14 0 28 14 0 29 14 0 
30 14 0 31 14 0 32 14 0 
33 14 0 34 14 0 35 14 0 
36 14 0 37 14 0 38 14 0 
39 14 0 40 14 0 41 14 0 
42 14 0 43 14 0 44 14 0 
45 14 0 46 14 0 47 14 0 
48 14 0 49 14 0 50 14 0 
0 15 0 1 15 0 2 15 0 
3 15 0 4 15 0 5 15 0 
6 15 0 7 15 0 8 15 0 
9 15 0 10 15 0 11 15 0 
12 15 0 13 15 0 14 15 0 
15 15 0 16 15 0 17 15 0 
18 15 0 19 15 0 20 15 0 
21 15 0 22 15 0 23 15 0 
24 15 0 25 15 0 26 15 0 
27 15 0 28 15 0 29 15 0 
30 15 0 31 15 0 32 15 0 
33 15 0 34 15 0 35 15 0 
36 15 0 37 15 0 38 15 0 
39 15 0 40 15 0 41 15 0 
42 15 0 43 15 0 44 15 0 
45 15 0 46 15 0 47 15 0 
48 15 0 49 15 0 50 15 0 
0 16 0 1 16 0 2 16 0 
3 16 0 4 16 0 5 16 0 
6 16 0 7 16 0 8 16 0 
9 16 0 10 16 0 11 16 0 
12 16 0 13 16 0 14 16 0 
15 16 0 16 16 0 17 16 0 
18 16 0 19 16 0 20 16 0 
21 16 0 22 16 0 23 16 0 
24 16 0 25 16 0 26 16 0 
27 16 0 28 16 0 29 16 0 
30 16 0 31 16 0 32 16 0 
33 16 0 34 16 0 35 16 0 
36 16 0 37 16 0 38 16 0 
39 16 0 40 16 0 41 16 0 
42 16 0 43 16 0 44 16 0 
45 16 0 46 16 0 47 16 0 
48 16 0 49 16 0 50 16 0 
0 17 0 1 17 0 2 17 0 
3 17 0 4 17 0 5 17 0 
6 17 0 7 17 0 8 17 0 
9 17 0 10 17 0 11 17 0 
12 17 0 13 17 0 14 17 0 
15 17 0 16 17 0 17 17 0 
18 17 0 19 17 0 20 17 0 
21 17 0 22 17 0 23 17 0 
24 17 0 25 17 0 26 17 0 
27 17 0 28 17 0 29 17 0 
30 17 0 31 17 0 32 17 0 
33 17 0 34 17 0 35 17 0 
36 17 0 37 17 0 38 17 0 
39 17 0 40 17 0 41 17 0 
42 17 0 43 17 0 44 17 0 
45 17 0 46 17 0 47 17 0 
48 17 0 49 17 0 50 17 0 
0 18 0 1 18 0 2 18 0 
3 18 0 4 18 0 5 18 0 
6 18 0 7 18 0 8 18 0 
9 18 0 10 18 0 11 18 0 
12 18 0 13 18 0 14 18 0 
15 18 0 16 18 0 17 18 0 
18 18 0 19 18 0 20 18 0 
21 18 0 22 18 0 23 18 0 
24 18 0 25 18 0 26 18 0 
27 18 0 28 18 0 29 18 0 
30 18 0 31 18 0 32 18 0 
33 18 0 34 18 0 35 18 0 
36 18 0 37 18 0 38 18 0 
39 18 0 40 18 0 41 18 0 
42 18 0 43 18 0 44 18 0 
45 18 0 46 18 0 47 18 0 
48 18 0 49 18 0 50 18 0 
0 19 0 1 19 0 2 19 0 
3 19 0 4 19 0 5 19 0 
6 19 0 7 19 0 8 19 0 
9 19 0 10 19 0 11 19 0 
12 19 0 13 19 0 14 19 0 
15 19 0 16 19 0 17 19 0 
18 19 0 19 19 0 20 19 0 
21 19 0 22 19 0 23 19 0 
24 19 0 25 19 0 26 19 0 
27 19 0 28 19 0 29 19 0 
30 19 0 31 19 0 32 19 0 
33 19 0 34 19 0 35 19 0 
36 19 0 37 19 0 38 19 0 
39 19 0 40 19 0 41 19 0 
42 19 0 43 19 0 44 19 0 
45 19 0 46 19 0 47 19 0 
48 19 0 49 19 0 50 19 0 
0 20 0 1 20 0 2 20 0 
3 20 0 4 20 0 5 20 0 
6 20 0 7 20 0 8 20 0 
9 20 0 10 20 0 11 20 0 
12 20 0 13 20 0 14 20 0 
15 20 0 16 20 0 17 20 0 
18 20 0 19 20 0 20 20 0 
21 20 0 22 20 0 23 20 0 
24 20 0 25 20 0 26 20 0 
27 20 0 28 20 0 29 20 0 
30 20 0 31 20 0 32 20 0 
33 20 0 34 20 0 35 20 0 
36 20 0 37 20 0 38 20 0 
39 20 0 40 20 0 41 20 0 
42 20 0 43 20 0 44 20 0 
45 20 0 46 20 0 47 20 0 
48 20 0 49 20 0 50 20 0 
0 21 0 1 21 0 2 21 0 
3 21 0 4 21 0 5 21 0 
6 21 0 7 21 0 8 21 0 
9 21 0 10 21 0 11 21 0 
12 21 0 13 21 0 14 21 0 
15 21 0 16 21 0 17 21 0 
18 21 0 19 21 0 20 21 0 
21 21 0 22 21 0 23 21 0 
24 21 0 25 21 0 26 21 0 
27 21 0 28 21 0 29 21 0 
30 21 0 31 21 0 32 21 0 
33 21 0 34 21 0 35 21 0 
36 21 0 37 21 0 38 21 0 
39 21 0 40 21 0 41 21 0 
42 21 0 43 21 0 44 21 0 
45 21 0 46 21 0 47 21 0 
48 21 0 49 21 0 50 21 0 
0 22 0 1 22 0 2 22 0 
3 22 0 4 22 0 5 22 0 
6 22 0 7 22 0 8 22 0 
9 22 0 10 22 0 11 22 0 
12 22 0 13 22 0 14 22 0 
15 22 0 16 22 0 17 22 0 
18 22 0 19 22 0 20 22 0 
21 22 0 22 22 0 23 22 0 
24 22 0 25 22 0 26 22 0 
27 22 0 28 22 0 29 22 0 
30 22 0 31 22 0 32 22 0 
33 22 0 34 22 0 35 22 0 
36 22 0 37 22 0 38 22 0 
39 22 0 40 22 0 41 22 0 
42 22 0 43 22 0 44 22 0 
45 22 0 46 22 0 47 22 0 
48 22 0 49 22 0 50 22 0 
0 23 0 1 23 0 2 23 0 
3 23 0 4 23 0 5 23 0 
6 23 0 7 23 0 8 23 0 
9 23 0 10 23 0 11 23 0 
12 23 0 13 23 0 14 23 0 
15 23 0 16 23 0 17 23 0 
18 23 0 19 23 0 20 23 0 
21 23 0 22 23 0 23 23 0 
24 23 0 25 23 0 26 23 0 
27 23 0 28 23 0 29 23 0 
30 23 0 31 23 0 32 23 0 
33 23 0 34 23 0 35 23 0 
36 23 0 37 23 0 38 23 0 
39 23 0 40 23 0 41 23 0 
42 23 0 43 23 0 44 23 0 
45 23 0 46 23 0 47 23 0 
48 23 0 49 23 0 50 23 0 
0 24 0 1 24 0 2 24 0 
3 24 0 4 24 0 5 24 0 
6 24 0 7 24 0 8 24 0 
9 24 0 10 24 0 11 24 0 
12 24 0 13 24 0 14 24 0 
15 24 0 16 24 0 17 24 0 
18 24 0 19 24 0 20 24 0 
21 24 0 22 24 0 23 24 0 
24 24 0 25 24 0 26 24 0 
27 24 0 28 24 0 29 24 0 
30 24 0 31 24 0 32 24 0 
33 24 0 34 24 0 35 24 0 
36 24 0 37 24 0 38 24 0 
39 24 0 40 24 0 41 24 0 
42 24 0 43 24 0 44 24 0 
45 24 0 46 24 0 47 24 0 
48 24 0 49 24 0 50 24 0 
0 25 0 1 25 0 2 25 0 
3 25 0 4 25 0 5 25 0 
[...]
CELL_DATA 2500
SCALARS $\mu_{AB} double
LOOKUP_TABLE default
-0.00096421860272 -0.000775665396 -0.00074672940641 -0.00079759786655 -0.00094460220659 -0.0013145148682 -0.0016559310523 -0.0017756212135 -0.0018482737516 
-0.0018654865031 -0.0018132156144 -0.0017019398169 -0.0013527906077 -0.00083949976934 -0.0007783635562 -0.00083278720164 -0.00088996869497 -0.00084305330928 
-0.00078168318745 -0.00078249069932 -0.0008796226233 -0.00097441518838 -0.0010037317669 -0.0010102949771 -0.00099143250798 -0.00095817740294 -0.00096638727764 
-0.0010245584196 -0.0010436418327 -0.0010452796208 -0.0010384771962 -0.0010226491373 -0.0010038747721 -0.00098448669226 -0.00096638391284 -0.00092128253246 
-0.00090110064816 -0.00089514769872 -0.00089347318534 -0.00089426610969 -0.00090621520697 -0.00097279445172 -0.00106315733 -0.0011482852996 -0.0012062322744 
-0.0012248216526 -0.0012329881557 -0.0012288681415 -0.0012106146692 -0.0011659185496 -0.0010984421644 -0.0009594230178 -0.00094024105039 -0.00096558700321 
-0.0010516200661 -0.0013196481617 -0.0016308967796 -0.0017595285134 -0.0018168926529 -0.0018157310184 -0.0017685870691 -0.0016680916234 -0.0013973854578 
-0.00094047629314 -0.00085493306949 -0.00090530773125 -0.0009350443364 -0.00091189614189 -0.00085732567582 -0.00086045032214 -0.00089995528134 -0.0009509926841 
-0.00099950249948 -0.0010114981927 -0.00099858982513 -0.00098633208633 -0.00102434908 -0.0010410023753 -0.0010476334284 -0.0010465488346 -0.0010388383651 
-0.0010291407437 -0.0010093097134 -0.00097423550708 -0.00092645637779 -0.00090526891077 -0.00089807916366 -0.0008931872888 -0.00088854627629 -0.00088734975406 
-0.00089404734355 -0.00092402931324 -0.0010573398063 -0.0011779020746 -0.0012142797899 -0.0012249028841 -0.0012277773614 -0.0012213190643 -0.001209686227 
-0.0011887757857 -0.001099144387 -0.0010165863817 -0.0009973298218 -0.00099816155287 -0.0010215399848 -0.0011219952796 -0.0014391220753 -0.0016454961955 
-0.0016866017791 -0.0016401079018 -0.0015706249672 -0.0014366978627 -0.0012509418908 -0.0010284771315 -0.00090752678755 -0.00093099498112 -0.0009571692393 
-0.00093923141465 -0.00092787783268 -0.00093467564507 -0.00091428296207 -0.00092787256015 -0.00097140786439 -0.0010013525534 -0.0010089158208 -0.0010163663328 
-0.0010292407426 -0.0010317530298 -0.0010375527922 -0.0010353343303 -0.0010226871822 -0.0010164805196 -0.0010090060158 -0.00096703706689 -0.00091688663828 
-0.00090785383519 -0.00090345007728 -0.00090062896362 -0.0008886107579 -0.00088671813308 -0.00089433648839 -0.00091603850288 -0.0010477352576 -0.0011663578786 
-0.00120553255 -0.0012138807019 -0.0012103570723 -0.0012069227505 -0.00120218727 -0.0011843573626 -0.0010471931605 -0.0010220646244 -0.0010081552 
-0.0010032864024 -0.0010095977073 -0.001033676375 -0.00114561929 -0.0013553371711 -0.0013496717293 -0.0012349733495 -0.0011419115612 -0.0010519176121 
-0.0010324356579 -0.0010085542165 -0.00098140886493 -0.00098082617259 -0.00099251513926 -0.00099898741836 -0.00099583537946 -0.00095519247267 -0.0009254622535 
-0.0009349801187 -0.00097918953389 -0.0010034423899 -0.0010194510135 -0.0010162601144 -0.001011006299 -0.0010061620403 -0.00099091115781 -0.00097190414871 
-0.0009854201276 -0.00099333536432 -0.0009916590855 -0.0009643337337 -0.00092242643769 -0.00091380098461 -0.00091148708901 -0.000911525191 -0.00090305535204 
-0.00089675341692 -0.00090663871027 -0.00094785567564 -0.00107764202 -0.0011380841229 -0.0011855325281 -0.0011999428117 -0.001198557107 -0.0011965695093 
-0.0011908051259 -0.0011524008155 -0.0010394878461 -0.001028288627 -0.0010171439721 -0.0010031228687 -0.0009997571632 -0.0010058995044 -0.0010223681548 
-0.0010524404477 -0.0010155356018 -0.0010056769259 -0.00098326477019 -0.00095914383509 -0.00095834800823 -0.00097576939202 -0.0010120345554 -0.0010388534014 
-0.0010497447897 -0.0010479277922 -0.0010376337192 -0.00099674169091 -0.00095653417553 -0.00097801554983 -0.0010249397352 -0.0010389422481 -0.001040731463 
-0.0010159455221 -0.00098549675665 -0.00097331421389 -0.00094476600124 -0.00093190183775 -0.00094882750879 -0.00096543749418 -0.00097060768702 -0.00096305756715 
-0.00093653917178 -0.00091970172328 -0.00091630994502 -0.000913712777 -0.00091047415102 -0.00091304445763 -0.00094143273316 -0.0010670496264 -0.0011126602717 
-0.0011305077972 -0.0011462436718 -0.001178678046 -0.0011894404369 -0.0011870604923 -0.0011662801987 -0.0010893085859 -0.0010354242755 -0.0010282135889 
-0.0010180190147 -0.00099565057611 -0.0009893501723 -0.0009911797645 -0.00098908988904 -0.00095899090122 -0.00094772890449 -0.0009480486094 -0.00095477818097 
-0.00094819299119 -0.00095904677313 -0.00097037354651 -0.0010226301019 -0.0010687626195 -0.0010716667635 -0.0010528436336 -0.0010384709718 -0.00099964272205 
-0.00096756982699 -0.001014231009 -0.0010524185173 -0.0010665118793 -0.0010630007526 -0.001031139197 -0.00098299822517 -0.00095414666133 -0.0009273305755 
-0.00091923822847 -0.00093192593282 -0.00095026537357 -0.00096856750077 -0.00097137591346 -0.00095897309746 -0.00093860490698 -0.00092414284313 -0.00092072397799 
-0.00092153066579 -0.00094255605789 -0.0010620776279 -0.0011130015927 -0.0011249189797 -0.0011324627979 -0.0011392118499 -0.0011448588687 -0.0011576174259 
-0.001150139242 -0.0011168438995 -0.0010611926798 -0.0010265156992 -0.0010209547663 -0.0010089481199 -0.00099540588952 -0.00098808234765 -0.00098682362893 
-0.00098097302861 -0.00095304406614 -0.00094834239848 -0.00095831599187 -0.00098674130565 -0.00098374640847 -0.00098407849686 -0.00099338018954 -0.0010475850725 
-0.001102190716 -0.0010915350303 -0.0010287850551 -0.0010017226235 -0.00095068513978 -0.00093055736442 -0.00098070564784 -0.0010363123184 -0.0010533278312 
-0.0010585978568 -0.0010398296783 -0.0010072150841 -0.00098178568878 -0.00095037949751 -0.00094293798072 -0.00095572762965 -0.00097135351671 -0.00098409198565 
-0.00098593417531 -0.00098343553641 -0.00098072043402 -0.00096831006267 -0.00094817921396 -0.00095669712096 -0.0010452278894 -0.001116827933 -0.0011332128888 
-0.0011338100497 -0.0011361291025 -0.0011385483733 -0.0011374634072 -0.001130613612 -0.0011013796043 -0.00107468387 -0.0010456030752 -0.0010109533637 
-0.0010129381819 -0.0010044999037 -0.0009965669929 -0.0009932522345 -0.00099591920809 -0.00099597441226 -0.00097509153271 -0.00097246895464 -0.00099130654851 
-0.001013354887 -0.0010158169095 -0.0010116344701 -0.0010264986987 -0.001107270847 -0.0011733670852 -0.0011698384836 -0.0010739738862 -0.0009722286944 
-0.0009109165609 -0.00089559525506 -0.00093218354637 -0.0009932553047 -0.0010225635421 -0.001042498146 -0.0010393366875 -0.0010239347531 -0.0010073362728 
-0.00098308014235 -0.00098047911054 -0.0010004791967 -0.0010075073973 -0.0010043739228 -0.00099782960879 -0.00099704737341 -0.00099821411096 -0.00099753669172 
-0.0009957239599 -0.00101014144 -0.0010902556733 -0.0011333444308 -0.0011430225287 -0.0011427870024 -0.0011367615148 -0.0011351210845 -0.0011283636952 
-0.0011001203807 -0.001043848068 -0.0010379998143 -0.0010251318147 -0.00098746286114 -0.00098722712139 -0.00099899805387 -0.0010028457035 -0.0010222944032 
-0.0010467668724 -0.0010371498799 -0.0010096884926 -0.00099589672895 -0.0010115163639 -0.0010259825182 -0.0010290726774 -0.0010305936856 -0.0010890993333 
-0.0011949609955 -0.0012517285252 -0.0012538916041 -0.0012047736773 -0.0010558236264 -0.00091894122141 -0.00088640212065 -0.00091546248591 -0.00095756629678 
-0.00098948000287 -0.0010242482181 -0.0010458839435 -0.0010469334365 -0.0010371669003 -0.0010140992386 -0.0010158152702 -0.001036011129 -0.0010380043256 
-0.0010220071078 -0.0010007385114 -0.00099842404001 -0.0010000733111 -0.0010003025609 -0.00099848516583 -0.0010028272971 -0.0010581547795 -0.0011276324088 
-0.0011408664378 -0.0011390481874 -0.0011338395051 -0.0011274339911 -0.0011071614167 -0.0010253425433 -0.0010171720225 -0.0010267497357 -0.00101533379 
-0.00096104426068 -0.00095537944454 -0.00097949385561 -0.0010168931009 -0.001058802482 -0.0010817672981 -0.0010736537238 -0.0010456801174 -0.0010164617576 
-0.0010129322458 -0.0010206920777 -0.0010230057217 -0.0010498899731 -0.0011610936892 -0.0012344409093 -0.001270652572 -0.0012725588682 -0.0012400104066 
-0.0011591293069 -0.0009680661521 -0.00084957576438 -0.00085744105128 -0.00089663734572 -0.00093943039692 -0.00099599051451 -0.0010507532216 -0.0010609583597 
-0.001061318394 -0.0010620750608 -0.0010626646127 -0.0010633990596 -0.0010592125514 -0.0010249440606 -0.0010000624901 -0.00099633511357 -0.00099749003226 
-0.00099558137006 -0.0009904625771 -0.00099103117734 -0.0010080864966 -0.0010808142028 -0.0011224161292 -0.0011238597265 -0.0011194596103 -0.0011064495018 
-0.0010233532908 -0.00097890333135 -0.0009886269593 -0.0010031614699 -0.00098958684914 -0.00094241939208 -0.0009352085391 -0.00096865248566 -0.001010934285 
-0.0010566820602 -0.0010812693828 -0.0010754896218 -0.0010605541514 -0.0010204076506 -0.00098572323398 -0.00095730727585 -0.000940701395 -0.00099770787718 
-0.0011566790064 -0.0012152745913 -0.0012611060404 -0.0012659843065 -0.001221681279 -0.0011279416453 -0.00092080515612 -0.00082339470966 -0.00084389060215 
-0.00088744898692 -0.0009271639076 -0.00095696310947 -0.001034117629 -0.0010640023644 -0.0010708905952 -0.0010764557009 -0.0010798615673 -0.0010776760677 
-0.0010689090016 -0.0010176517137 -0.00099806307848 -0.00099338826305 -0.00099060021586 -0.00097857746802 -0.00097746103582 -0.00097765464122 -0.00098138336188 
-0.0010054195035 -0.0010320427716 -0.001059179861 -0.0010640874981 -0.0010288330156 -0.00095969868863 -0.00095023796146 -0.00096590466866 -0.00098407685236 
-0.00096564241236 -0.00095345630364 -0.0009376392607 -0.00094995144541 -0.0009830558469 -0.0010327649301 -0.0010651400329 -0.001053000785 -0.0010432283446 
-0.0010015528825 -0.00094747033305 -0.00091756469504 -0.00089579675202 -0.00091009729643 -0.001051530175 -0.001159537187 -0.0012194976589 -0.0012228971197 
-0.0011810704223 -0.0010543086215 -0.00086911495809 -0.00080062710359 -0.00082515221004 -0.00089891353893 -0.0009397921934 -0.00095609439373 -0.00098597890677 
-0.0010500343494 -0.0010658236628 -0.0010712231336 -0.0010757186834 -0.001075302801 -0.0010576321664 -0.0010115049347 -0.00099471538715 -0.00098997301162 
-0.00098347535228 -0.00097304120327 -0.00096902822485 -0.00096711847168 -0.00095868060129 -0.00093137740381 -0.00091515660722 -0.00091193067632 -0.00091259374697 
-0.00093135867837 -0.0009449118358 -0.0009523934569 -0.0009773232067 -0.0010081108665 -0.0009906072821 -0.0009917098902 -0.00096610546004 -0.00096419975738 
-0.00098761110244 -0.001018047958 -0.0010366634544 -0.001028451995 -0.0010169070334 -0.00096944157606 -0.00094365386116 -0.00091281431789 -0.0008811512703 
-0.00087219986638 -0.00093249019901 -0.0010907071258 -0.0011821581206 -0.0012027254951 -0.0011617676309 -0.0010145170522 -0.00084730316176 -0.00079546264208 
-0.0008176979311 -0.00093779573784 -0.00096104642079 -0.00096720310988 -0.00097260225815 -0.0010029664608 -0.0010340661689 -0.0010476955411 -0.0010544724991 
-0.0010479704788 -0.0010301266401 -0.0010080715874 -0.00099236417009 -0.00098679209912 -0.00097994629901 -0.00097237557671 -0.00096619992383 -0.00095906015072 
-0.00092470713553 -0.00090751565007 -0.00089943162739 -0.00089310123638 -0.0008895802779 -0.00089415536824 -0.00093263594533 -0.00097852830514 -0.0010093781939 
-0.0010353803226 -0.0010283356963 -0.0010193624251 -0.0010088945113 -0.0010056954255 -0.0010250386101 -0.0010419448338 -0.0010351217974 -0.0010200745217 
-0.0010056338429 -0.00097239576364 -0.00096144974106 -0.00093504829549 -0.00087741342288 -0.00084413413731 -0.00086834495297 -0.00098237152783 -0.0011404298816 
-0.0011808523188 -0.0011429200302 -0.00095514210287 -0.0008404492815 -0.00082966800479 -0.00088584699482 -0.00096742403841 -0.00097751538311 -0.00097591913167 
-0.00096889864125 -0.00094946342557 -0.00093530187988 -0.00094410643231 -0.00096069865826 -0.00098198228914 -0.00099669213351 -0.00099566839663 -0.00098840701782 
-0.00098360863172 -0.00097790548143 -0.00097029727571 -0.00096058601772 -0.00093430262192 -0.00091175821992 -0.00090641689373 -0.00089943133639 -0.00088949763912 
-0.00088548753614 -0.00088931043531 -0.00090097245365 -0.00096960366299 -0.0010182294903 -0.0010486255803 -0.0010465407619 -0.0010831345413 -0.0010892554786 
-0.0010572350786 -0.0010634532954 -0.0010683216413 -0.0010525109862 -0.0010296026409 -0.0010021691004 -0.00098241913883 -0.00097677501711 -0.0009662209328 
-0.00089378662688 -0.00084227275201 -0.00084026678964 -0.00088445300703 -0.0010646266761 -0.0011333765615 -0.0010854363035 -0.00094400441566 -0.00086743374167 
-0.00087788583644 -0.00092755811472 -0.00096893335286 -0.00098354103616 -0.00097948200113 -0.00095059623466 -0.00092334750552 -0.00091867438453 -0.00092848787095 
-0.0009460698028 -0.00096361093948 -0.00097445616505 -0.0009803450103 -0.00097386087594 -0.0009660433505 -0.00096122352419 -0.00095457223354 -0.00094206705189 
-0.00091979597506 -0.00091091122174 -0.00090810706332 -0.00090475173936 -0.00089252313713 -0.00089072243084 -0.00089333227295 -0.00089893214602 -0.00093651708495 
-0.0010016946372 -0.0010446646563 -0.0010629923385 -0.0011156835592 -0.0011615016252 -0.0011511100432 -0.0011036098401 -0.0010854617562 -0.0010605133303 
-0.0010351902827 -0.0010101578707 -0.00099086130938 -0.00098427433837 -0.00096805863948 -0.00092022801046 -0.00087079122368 -0.00084848019027 -0.00086560290295 
-0.00095819265009 -0.00099780543701 -0.00098125738643 -0.000936405947 -0.00089725478713 -0.00089783258076 -0.00094148621126 -0.00097424187503 -0.00098437709457 
-0.00097014865543 -0.00093317898847 -0.00092447746292 -0.00091929886513 -0.0009284362387 -0.00095308923733 -0.0009690522279 -0.00097256037548 -0.00096849319565 
-0.0009513594066 -0.00094200474012 -0.00094140988014 -0.00093685033277 -0.00093013049748 -0.00091684830476 -0.00091047333678 -0.00090897029758 -0.00090890613206 
-0.00090832714427 -0.00090247408962 -0.00089926285468 -0.00090101190203 -0.00091652245784 -0.00095573506297 -0.0010013631923 -0.0010542470865 -0.0010506646003 
-0.0011499504777 -0.0012031346709 -0.0011844719178 -0.0011264140278 -0.0010609898379 -0.0010222471428 -0.0010268651376 -0.0010168933047 -0.00099277594629 
-0.00097264141036 -0.0009399202463 -0.00089962233798 -0.00087448656226 -0.00088645260494 -0.00090720932138 -0.00090946916108 -0.00091274241639 -0.00091879102771 
-0.00091966429154 -0.00092832109255 -0.00095630160138 -0.00098387671966 -0.0009935838481 -0.00097390063198 -0.00094490032261 -0.00093934282105 -0.00093430850243 
-0.00093698255379 -0.00096527875922 -0.00097327907034 -0.00097299088774 -0.00095642170928 -0.0009317865266 -0.00093515713123 -0.00093744879083 -0.00093375238658 
-0.00092804812194 -0.00092204340913 -0.00091220871319 -0.00091051619378 -0.0009110756441 -0.00091104138238 -0.00090846371678 -0.00090404468879 -0.00089866748763 
-0.00088165035004 -0.00087796187383 -0.00090814768871 -0.0009690919281 -0.00096962391755 -0.0010317279947 -0.0011357803919 -0.0011399751943 -0.0010497119444 
-0.00092604675456 -0.00090505428146 -0.00102892427 -0.0011076492251 -0.0010524391787 -0.00099203808971 -0.00095201253991 -0.00091452273684 -0.00090177151499 
-0.00090454775896 -0.00090137832788 -0.00089961569086 -0.00090472973206 -0.000915863572 -0.0009269125144 -0.00095169766009 -0.00099015754402 -0.0010219319967 
-0.0010338211453 -0.001011513066 -0.00096741250648 -0.00095797216585 -0.00095844973964 -0.00096262305121 -0.00096654932535 -0.00097028191729 -0.00096592470988 
-0.00093107314509 -0.00091963707423 -0.00092582107031 -0.00093121810273 -0.00092972618159 -0.00092730517164 -0.00092650142349 -0.00092448029618 -0.00091947259405 
-0.00092121421036 -0.00092213526944 -0.00091770274287 -0.00090810849534 -0.00087304097134 -0.00082986253798 -0.00082871231547 -0.00087696967289 -0.00093345714929 
-0.0009408092498 -0.00094756684157 -0.00098739205952 -0.00095631581589 -0.00076952497525 -0.00057730303937 -0.00077646712839 -0.0010181425498 -0.0011588179443 
-0.0011795876096 -0.0010999039232 -0.0010167681154 -0.00095881658157 -0.00092070272206 -0.00091288767362 -0.00090582318597 -0.00090197573724 -0.00090954976468 
-0.00092214170684 -0.00093267854734 -0.00095776721408 -0.0010242860264 -0.001071359196 -0.0010874900704 -0.0010786469504 -0.0010175089794 -0.00097663945083 
-0.00096912175764 -0.00096525556646 -0.00096346716429 -0.00096405805932 -0.00095398301481 -0.00091440180506 -0.00090987410206 -0.00091720298119 -0.0009276042391 
-0.00093562114833 -0.00093629318419 -0.00093776740802 -0.00095132439387 -0.00097807034703 -0.00097196416215 -0.00096824616788 -0.00096295544581 -0.00093121859275 
-0.00084225846979 -0.00080849111781 -0.00081481837893 -0.00086021667561 -0.00091650535339 -0.00089688739857 -0.00088506146133 -0.00087256908414 -0.00069419276083 
-0.0004079818213 -0.00043565875422 -0.0006882886991 -0.00097412464613 -0.0011472788221 -0.0011979328374 -0.0011729730952 -0.0010751567789 -0.00098736356558 
-0.00093130415779 -0.00092323601034 -0.00091513350048 -0.00090888399326 -0.00092195304451 -0.00093261256356 -0.00094484735519 -0.00096913297001 -0.0010643283959 
-0.0010944131012 -0.0011005959325 -0.0011001447478 -0.0010883156371 -0.0010220162477 -0.00097933131011 -0.00096694944439 -0.00096144666559 -0.00095826348651 
-0.00093582829343 -0.00091135470279 -0.00091059992121 -0.00092399633592 -0.00095004489783 -0.00096207219814 -0.00095511804618 -0.00096006458009 -0.0010049978728 
-0.0011027352609 -0.0011712086156 -0.0011902464005 -0.0011466047911 -0.0010160845827 -0.00084408626654 -0.00081700300694 -0.00080971694857 -0.00083948892651 
-0.00090391857491 -0.00083127820902 -0.00082643610286 -0.00079589440913 -0.00045401146651 -0.00031947403311 -0.00028820527144 -0.00047420155206 -0.00091117976324 
-0.0010660224917 -0.0011065300925 -0.0011108612699 -0.0010623693807 -0.00099085034382 -0.00093581041645 -0.00092716793331 -0.0009201407782 -0.00091580384075 
-0.00092659401588 -0.00093655425371 -0.00095213899613 -0.0010009825178 -0.0010842575567 -0.0011002571869 -0.001105498889 -0.0011073367955 -0.0011038645723 
-0.0010877677933 -0.0010217088993 -0.00097140396245 -0.00095258376687 -0.00094167176001 -0.00092731206137 -0.00091714753422 -0.00092241352344 -0.00093996198807 
-0.00096155822053 -0.0009739918609 -0.0009745027189 -0.00099062757336 -0.0010964598312 -0.0012008291753 -0.0012440471868 -0.0012610933171 -0.0012494266493 
-0.0011457749971 -0.0009021067232 -0.00086129623067 -0.00085050453862 -0.00085618450162 -0.00083509363264 -0.00081189595243 -0.00081480835844 -0.00081198339318 
-0.00063976615887 -0.0005266677572 -0.00035393959999 -0.00040200489857 -0.00058637026567 -0.00071972279387 -0.00088878361203 -0.00092648930616 -0.00097575811445 
-0.00097226564085 -0.00093487251534 -0.0009221069118 -0.00091518152111 -0.00091182837225 -0.00091814922223 -0.00093123007792 -0.00095145357097 -0.0010474130325 
-0.0010911309899 -0.001103273677 -0.0011058914354 -0.0011091473515 -0.0011069553411 -0.0010963713024 -0.0010499683156 -0.00095509974591 -0.00092078504458 
-0.0009253601978 -0.00091626250619 -0.00090169137075 -0.00092231440072 -0.00094483521244 -0.00096829619907 -0.00098249619342 -0.00099134276048 -0.0010565477481 
-0.0011708709296 -0.0012143413367 -0.001250122443 -0.0012735626395 -0.0012725783757 -0.0012285492188 -0.0010084349355 -0.00091384641831 -0.00089701604302 
-0.0008815699164 -0.00082924945134 -0.00084965461395 -0.00090962135732 -0.001120267748 -0.0010638163312 -0.00093077670768 -0.00081087882242 -0.00045287865522 
-0.00027768645594 -0.00040843595481 -0.000605090233 -0.00072174016478 -0.00091450439104 -0.00095381900323 -0.00092948036728 -0.0009092598727 -0.00090404374231 
-0.00090114424599 -0.00090901230395 -0.00092630700806 -0.0009650549881 -0.0010678920231 -0.0010975354546 -0.0011070351367 -0.001110082668 -0.0011097850935 
-0.0011053004307 -0.0010898222816 -0.0010088416265 -0.0008981075685 -0.00090491261263 -0.00091866051705 -0.0009099196531 -0.0008843108118 -0.00088532677555 