# vtk DataFile Version 4.2
vtk output
ASCII
DATASET UNSTRUCTURED_GRID
POINTS 2601 double
0 0 0 1 0 0 2 0 0 
3 0 0 4 0 0 5 0 0 
6 0 0 7 0 0 8 0 0 
9 0 0 10 0 0 11 0 0 
12 0 0 13 0 0 14 0 0 
15 0 0 16 0 0 17 0 0 
18 0 0 19 0 0 20 0 0 
21 0 0 22 0 0 23 0 0 
24 0 0 25 0 0 26 0 0 
27 0 0 28 0 0 29 0 0 
30 0 0 31 0 0 32 0 0 
33 0 0 34 0 0 35 0 0 
36 0 0 37 0 0 38 0 0 
39 0 0 40 0 0 41 0 0 
42 0 0 43 0 0 44 0 0 
45 0 0 46 0 0 47 0 0 
48 0 0 49 0 0 50 0 0 
0 1 0 1 1 0 2 1 0 
3 1 0 4 1 0 5 1 0 
6 1 0 7 1 0 8 1 0 
9 1 0 10 1 0 11 1 0 
12 1 0 13 1 0 14 1 0 
15 1 0 16 1 0 17 1 0 
18 1 0 19 1 0 20 1 0 
21 1 0 22 1 0 23 1 0 
24 1 0 25 1 0 26 1 0 
27 1 0 28 1 0 29 1 0 
30 1 0 31 1 0 32 1 0 
33 1 0 34 1 0 35 1 0 
36 1 0 37 1 0 38 1 0 
39 1 0 40 1 0 41 1 0 
42 1 0 43 1 0 44 1 0 
45 1 0 46 1 0 47 1 0 
48 1 0 49 1 0 50 1 0 
0 2 0 1 2 0 2 2 0 
3 2 0 4 2 0 5 2 0 
6 2 0 7 2 0 8 2 0 
9 2 0 10 2 0 11 2 0 
12 2 0 13 2 0 14 2 0 
15 2 0 16 2 0 17 2 0 
18 2 0 19 2 0 20 2 0 
21 2 0 22 2 0 23 2 0 
24 2 0 25 2 0 26 2 0 
27 2 0 28 2 0 29 2 0 
30 2 0 31 2 0 32 2 0 
33 2 0 34 2 0 35 2 0 
36 2 0 37 2 0 38 2 0 
39 2 0 40 2 0 41 2 0 
42 2 0 43 2 0 44 2 0 
45 2 0 46 2 0 47 2 0 
48 2 0 49 2 0 50 2 0 
0 3 0 1 3 0 2 3 0 
3 3 0 4 3 0 5 3 0 
6 3 0 7 3 0 8 3 0 
9 3 0 10 3 0 11 3 0 
12 3 0 13 3 0 14 3 0 
15 3 0 16 3 0 17 3 0 
18 3 0 19 3 0 20 3 0 
21 3 0 22 3 0 23 3 0 
24 3 0 25 3 0 26 3 0 
27 3 0 28 3 0 29 3 0 
30 3 0 31 3 0 32 3 0 
33 3 0 34 3 0 35 3 0 
36 3 0 37 3 0 38 3 0 
39 3 0 40 3 0 41 3 0 
42 3 0 43 3 0 44 3 0 
45 3 0 46 3 0 47 3 0 
48 3 0 49 3 0 50 3 0 
0 4 0 1 4 0 2 4 0 
3 4 0 4 4 0 5 4 0 
6 4 0 7 4 0 8 4 0 
9 4 0 10 4 0 11 4 0 
12 4 0 13 4 0 14 4 0 
15 4 0 16 4 0 17 4 0 
18 4 0 19 4 0 20 4 0 
21 4 0 22 4 0 23 4 0 
24 4 0 25 4 0 26 4 0 
27 4 0 28 4 0 29 4 0 
30 4 0 31 4 0 32 4 0 
33 4 0 34 4 0 35 4 0 
36 4 0 37 4 0 38 4 0 
39 4 0 40 4 0 41 4 0 
42 4 0 43 4 0 44 4 0 
45 4 0 46 4 0 47 4 0 
48 4 0 49 4 0 50 4 0 
0 5 0 1 5 0 2 5 0 
3 5 0 4 5 0 5 5 0 
6 5 0 7 5 0 8 5 0 
9 5 0 10 5 0 11 5 0 
12 5 0 13 5 0 14 5 0 
15 5 0 16 5 0 17 5 0 
18 5 0 19 5 0 20 5 0 
21 5 0 22 5 0 23 5 0 
24 5 0 25 5 0 26 5 0 
27 5 0 28 5 0 29 5 0 
30 5 0 31 5 0 32 5 0 
33 5 0 34 5 0 35 5 0 
36 5 0 37 5 0 38 5 0 
39 5 0 40 5 0 41 5 0 
42 5 0 43 5 0 44 5 0 
45 5 0 46 5 0 47 5 0 
48 5 0 49 5 0 50 5 0 
0 6 0 1 6 0 2 6 0 
3 6 0 4 6 0 5 6 0 
6 6 0 7 6 0 8 6 0 
9 6 0 10 6 0 11 6 0 
12 6 0 13 6 0 14 6 0 
15 6 0 16 6 0 17 6 0 
18 6 0 19 6 0 20 6 0 
21 6 0 22 6 0 23 6 0 
24 6 0 25 6 0 26 6 0 
27 6 0 28 6 0 29 6 0 
30 6 0 31 6 0 32 6 0 
33 6 0 34 6 0 35 6 0 
36 6 0 37 6 0 38 6 0 
39 6 0 40 6 0 41 6 0 
42 6 0 43 6 0 44 6 0 
45 6 0 46 6 0 47 6 0 
48 6 0 49 6 0 50 6 0 
0 7 0 1 7 0 2 7 0 
3 7 0 4 7 0 5 7 0 
6 7 0 7 7 0 8 7 0 
9 7 0 10 7 0 11 7 0 
12 7 0 13 7 0 14 7 0 
15 7 0 16 7 0 17 7 0 
18 7 0 19 7 0 20 7 0 
21 7 0 22 7 0 23 7 0 
24 7 0 25 7 0 26 7 0 
27 7 0 28 7 0 29 7 0 
30 7 0 31 7 0 32 7 0 
33 7 0 34 7 0 35 7 0 
36 7 0 37 7 0 38 7 0 
39 7 0 40 7 0 41 7 0 
42 7 0 43 7 0 44 7 0 
45 7 0 46 7 0 47 7 0 
48 7 0 49 7 0 50 7 0 
0 8 0 1 8 0 2 8 0 
3 8 0 4 8 0 5 8 0 
6 8 0 7 8 0 8 8 0 
9 8 0 10 8 0 11 8 0 
12 8 0 13 8 0 14 8 0 
15 8 0 16 8 0 17 8 0 
18 8 0 19 8 0 20 8 0 
21 8 0 22 8 0 23 8 0 
24 8 0 25 8 0 26 8 0 
27 8 0 28 8 0 29 8 0 
30 8 0 31 8 0 32 8 0 
33 8 0 34 8 0 35 8 0 
36 8 0 37 8 0 38 8 0 
39 8 0 40 8 0 41 8 0 
42 8 0 43 8 0 44 8 0 
45 8 0 46 8 0 47 8 0 
48 8 0 49 8 0 50 8 0 
0 9 0 1 9 0 2 9 0 
3 9 0 4 9 0 5 9 0 
6 9 0 7 9 0 8 9 0 
9 9 0 10 9 0 11 9 0 
12 9 0 13 9 0 14 9 0 
15 9 0 16 9 0 17 9 0 
18 9 0 19 9 0 20 9 0 
21 9 0 22 9 0 23 9 0 
24 9 0 25 9 0 26 9 0 
27 9 0 28 9 0 29 9 0 
30 9 0 31 9 0 32 9 0 
33 9 0 34 9 0 35 9 0 
36 9 0 37 9 0 38 9 0 
39 9 0 40 9 0 41 9 0 
42 9 0 43 9 0 44 9 0 
45 9 0 46 9 0 47 9 0 
48 9 0 49 9 0 50 9 0 
0 10 0 1 10 0 2 10 0 
3 10 0 4 10 0 5 10 0 
6 10 0 7 10 0 8 10 0 
9 10 0 10 10 0 11 10 0 
12 10 0 13 10 0 14 10 0 
15 10 0 16 10 0 17 10 0 
18 10 0 19 10 0 20 10 0 
21 10 0 22 10 0 23 10 0 
24 10 0 25 10 0 26 10 0 
27 10 0 28 10 0 29 10 0 
30 10 0 31 10 0 32 10 0 
33 10 0 34 10 0 35 10 0 
36 10 0 37 10 0 38 10 0 
39 10 0 40 10 0 41 10 0 
42 10 0 43 10 0 44 10 0 
45 10 0 46 10 0 47 10 0 
48 10 0 49 10 0 50 10 0 
0 11 0 1 11 0 2 11 0 
3 11 0 4 11 0 5 11 0 
6 11 0 7 11 0 8 11 0 
9 11 0 10 11 0 11 11 0 
12 11 0 13 11 0 14 11 0 
15 11 0 16 11 0 17 11 0 
18 11 0 19 11 0 20 11 0 
21 11 0 22 11 0 23 11 0 
24 11 0 25 11 0 26 11 0 
27 11 0 28 11 0 29 11 0 
30 11 0 31 11 0 32 11 0 
33 11 0 34 11 0 35 11 0 
36 11 0 37 11 0 38 11 0 
39 11 0 40 11 0 41 11 0 
42 11 0 43 11 0 44 11 0 
45 11 0 46 11 0 47 11 0 
48 11 0 49 11 0 50 11 0 
0 12 0 1 12 0 2 12 0 
3 12 0 4 12 0 5 12 0 
6 12 0 7 12 0 8 12 0 
9 12 0 10 12 0 11 12 0 
12 12 0 13 12 0 14 12 0 
15 12 0 16 12 0 17 12 0 
18 12 0 19 12 0 20 12 0 
21 12 0 22 12 0 23 12 0 
24 12 0 25 12 0 26 12 0 
27 12 0 28 12 0 29 12 0 
30 12 0 31 12 0 32 12 0 
33 12 0 34 12 0 35 12 0 
36 12 0 37 12 0 38 12 0 
39 12 0 40 12 0 41 12 0 
42 12 0 43 12 0 44 12 0 
45 12 0 46 12 0 47 12 0 
48 12 0 49 12 0 50 12 0 
0 13 0 1 13 0 2 13 0 
3 13 0 4 13 0 5 13 0 
6 13 0 7 13 0 8 13 0 
9 13 0 10 13 0 11 13 0 
12 13 0 13 13 0 14 13 0 
15 13 0 16 13 0 17 13 0 
18 13 0 19 13 0 20 13 0 
21 13 0 22 13 0 23 13 0 
24 13 0 25 13 0 26 13 0 
27 13 0 28 13 0 29 13 0 
30 13 0 31 13 0 32 13 0 
33 13 0 34 13 0 35 13 0 
36 13 0 37 13 0 38 13 0 
39 13 0 40 13 0 41 13 0 
42 13 0 43 13 0 44 13 0 
45 13 0 46 13 0 47 13 0 
48 13 0 49 13 0 50 13 0 
0 14 0 1 14 0 2 14 0 
3 14 0 4 14 0 5 14 0 
6 14 0 7 14 0 8 14 0 
9 14 0 10 14 0 11 14 0 
12 14 0 13 14 0 14 14 0 
15 14 0 16 14 0 17 14 0 
18 14 0 19 14 0 20 14 0 
21 14 0 22 14 0 23 14 0 
24 14 0 25 14 0 26 14 0 
27 14 0 28 14 0 29 14 0 
30 14 0 31 14 0 32 14 0 
33 14 0 34 14 0 35 14 0 
36 14 0 37 14 0 38 14 0 
39 14 0 40 14 0 41 14 0 
42 14 0 43 14 0 44 14 0 
45 14 0 46 14 0 47 14 0 
48 14 0 49 14 0 50 14 0 
0 15 0 1 15 0 2 15 0 
3 15 0 4 15 0 5 15 0 
6 15 0 7 15 0 8 15 0 
9 15 0 10 15 0 11 15 0 
12 15 0 13 15 0 14 15 0 
15 15 0 16 15 0 17 15 0 
18 15 0 19 15 0 20 15 0 
21 15 0 22 15 0 23 15 0 
24 15 0 25 15 0 26 15 0 
27 15 0 28 15 0 29 15 0 
30 15 0 31 15 0 32 15 0 
33 15 0 34 15 0 35 15 0 
36 15 0 37 15 0 38 15 0 
39 15 0 40 15 0 41 15 0 
42 15 0 43 15 0 44 15 0 
45 15 0 46 15 0 47 15 0 
48 15 0 49 15 0 50 15 0 
0 16 0 1 16 0 2 16 0 
3 16 0 4 16 0 5 16 0 
6 16 0 7 16 0 8 16 0 
9 16 0 10 16 0 11 16 0 
12 16 0 13 16 0 14 16 0 
15 16 0 16 16 0 17 16 0 
18 16 0 19 16 0 20 16 0 
21 16 0 22 16 0 23 16 0 
24 16 0 25 16 0 26 16 0 
27 16 0 28 16 0 29 16 0 
30 16 0 31 16 0 32 16 0 
33 16 0 34 16 0 35 16 0 
36 16 0 37 16 0 38 16 0 
39 16 0 40 16 0 41 16 0 
42 16 0 43 16 0 44 16 0 
45 16 0 46 16 0 47 16 0 
48 16 0 49 16 0 50 16 0 
0 17 0 1 17 0 2 17 0 
3 17 0 4 17 0 5 17 0 
6 17 0 7 17 0 8 17 0 
9 17 0 10 17 0 11 17 0 
12 17 0 13 17 0 14 17 0 
15 17 0 16 17 0 17 17 0 
18 17 0 19 17 0 20 17 0 
21 17 0 22 17 0 23 17 0 
24 17 0 25 17 0 26 17 0 
27 17 0 28 17 0 29 17 0 
30 17 0 31 17 0 32 17 0 
33 17 0 34 17 0 35 17 0 
36 17 0 37 17 0 38 17 0 
39 17 0 40 17 0 41 17 0 
42 17 0 43 17 0 44 17 0 
45 17 0 46 17 0 47 17 0 
48 17 0 49 17 0 50 17 0 
0 18 0 1 18 0 2 18 0 
3 18 0 4 18 0 5 18 0 
6 18 0 7 18 0 8 18 0 
9 18 0 10 18 0 11 18 0 
12 18 0 13 18 0 14 18 0 
15 18 0 16 18 0 17 18 0 
18 18 0 19 18 0 20 18 0 
21 18 0 22 18 0 23 18 0 
24 18 0 25 18 0 26 18 0 
27 18 0 28 18 0 29 18 0 
30 18 0 31 18 0 32 18 0 
33 18 0 34 18 0 35 18 0 
36 18 0 37 18 0 38 18 0 
39 18 0 40 18 0 41 18 0 
42 18 0 43 18 0 44 18 0 
45 18 0 46 18 0 47 18 0 
48 18 0 49 18 0 50 18 0 
0 19 0 1 19 0 2 19 0 
3 19 0 4 19 0 5 19 0 
6 19 0 7 19 0 8 19 0 
9 19 0 10 19 0 11 19 0 
12 19 0 13 19 0 14 19 0 
15 19 0 16 19 0 17 19 0 
18 19 0 19 19 0 20 19 0 
21 19 0 22 19 0 23 19 0 
24 19 0 25 19 0 26 19 0 
27 19 0 28 19 0 29 19 0 
30 19 0 31 19 0 32 19 0 
33 19 0 34 19 0 35 19 0 
36 19 0 37 19 0 38 19 0 
39 19 0 40 19 0 41 19 0 
42 19 0 43 19 0 44 19 0 
45 19 0 46 19 0 47 19 0 
48 19 0 49 19 0 50 19 0 
0 20 0 1 20 0 2 20 0 
3 20 0 4 20 0 5 20 0 
6 20 0 7 20 0 8 20 0 
9 20 0 10 20 0 11 20 0 
12 20 0 13 20 0 14 20 0 
15 20 0 16 20 0 17 20 0 
18 20 0 19 20 0 20 20 0 
21 20 0 22 20 0 23 20 0 
24 20 0 25 20 0 26 20 0 
27 20 0 28 20 0 29 20 0 
30 20 0 31 20 0 32 20 0 
33 20 0 34 20 0 35 20 0 
36 20 0 37 20 0 38 20 0 
39 20 0 40 20 0 41 20 0 
42 20 0 43 20 0 44 20 0 
45 20 0 46 20 0 47 20 0 
48 20 0 49 20 0 50 20 0 
0 21 0 1 21 0 2 21 0 
3 21 0 4 21 0 5 21 0 
6 21 0 7 21 0 8 21 0 
9 21 0 10 21 0 11 21 0 
12 21 0 13 21 0 14 21 0 
15 21 0 16 21 0 17 21 0 
18 21 0 19 21 0 20 21 0 
21 21 0 22 21 0 23 21 0 
24 21 0 25 21 0 26 21 0 
27 21 0 28 21 0 29 21 0 
30 21 0 31 21 0 32 21 0 
33 21 0 34 21 0 35 21 0 
36 21 0 37 21 0 38 21 0 
39 21 0 40 21 0 41 21 0 
42 21 0 43 21 0 44 21 0 
45 21 0 46 21 0 47 21 0 
48 21 0 49 21 0 50 21 0 
0 22 0 1 22 0 2 22 0 
3 22 0 4 22 0 5 22 0 
6 22 0 7 22 0 8 22 0 
9 22 0 10 22 0 11 22 0 
12 22 0 13 22 0 14 22 0 
15 22 0 16 22 0 17 22 0 
18 22 0 19 22 0 20 22 0 
21 22 0 22 22 0 23 22 0 
24 22 0 25 22 0 26 22 0 
27 22 0 28 22 0 29 22 0 
30 22 0 31 22 0 32 22 0 
33 22 0 34 22 0 35 22 0 
36 22 0 37 22 0 38 22 0 
39 22 0 40 22 0 41 22 0 
42 22 0 43 22 0 44 22 0 
45 22 0 46 22 0 47 22 0 
48 22 0 49 22 0 50 22 0 
0 23 0 1 23 0 2 23 0 
3 23 0 4 23 0 5 23 0 
6 23 0 7 23 0 8 23 0 
9 23 0 10 23 0 11 23 0 
12 23 0 13 23 0 14 23 0 
15 23 0 16 23 0 17 23 0 
18 23 0 19 23 0 20 23 0 
21 23 0 22 23 0 23 23 0 
24 23 0 25 23 0 26 23 0 
27 23 0 28 23 0 29 23 0 
30 23 0 31 23 0 32 23 0 
33 23 0 34 23 0 35 23 0 
36 23 0 37 23 0 38 23 0 
39 23 0 40 23 0 41 23 0 
42 23 0 43 23 0 44 23 0 
45 23 0 46 23 0 47 23 0 
48 23 0 49 23 0 50 23 0 
0 24 0 1 24 0 2 24 0 
3 24 0 4 24 0 5 24 0 
6 24 0 7 24 0 8 24 0 
9 24 0 10 24 0 11 24 0 
12 24 0 13 24 0 14 24 0 
15 24 0 16 24 0 17 24 0 
18 24 0 19 24 0 20 24 0 
21 24 0 22 24 0 23 24 0 
24 24 0 25 24 0 26 24 0 
27 24 0 28 24 0 29 24 0 
30 24 0 31 24 0 32 24 0 
33 24 0 34 24 0 35 24 0 
36 24 0 37 24 0 38 24 0 
39 24 0 40 24 0 41 24 0 
42 24 0 43 24 0 44 24 0 
45 24 0 46 24 0 47 24 0 
48 24 0 49 24 0 50 24 0 
0 25 0 1 25 0 2 25 0 
3 25 0 4 25 0 5 25 0 
[...]
CELL_DATA 2500
SCALARS $\mu_{AB} double
LOOKUP_TABLE default
-0.0020991384821 -0.0020918907123 -0.0020560475964 -0.0020095994289 -0.0019844492691 -0.0019936653918 -0.0020209369585 -0.0020412236876 -0.0020474421007 
-0.0020509718706 -0.0020607788322 -0.0020735297983 -0.002076684723 -0.0020541819779 -0.0020020263329 -0.0019434484994 -0.0019146578891 -0.0019306355603 
-0.0019721814858 -0.0020079127806 -0.0020204452765 -0.002011590945 -0.0019959769587 -0.0019934025232 -0.0020146661456 -0.0020484940305 -0.0020704211375 
-0.002068193382 -0.0020517043939 -0.0020371793299 -0.0020310678344 -0.0020311127462 -0.0020323788397 -0.0020288052003 -0.0020161268873 -0.0019972420003 
-0.0019822982296 -0.0019825484298 -0.0020038046297 -0.0020421072913 -0.0020824231159 -0.0021053117789 -0.0021018620957 -0.0020806215746 -0.0020578133504 
-0.0020460163899 -0.0020488205625 -0.0020602215717 -0.0020732581248 -0.0020875454251 -0.0020892116999 -0.0020881198117 -0.0020600088968 -0.0020206492575 
-0.0019981520139 -0.0020035643413 -0.0020227768554 -0.0020350326054 -0.0020365535402 -0.0020403521879 -0.0020553369841 -0.0020759710958 -0.002086853135 
-0.0020712005571 -0.0020256746812 -0.0019718342422 -0.0019420430681 -0.0019500433879 -0.0019814712193 -0.0020134817335 -0.0020334025438 -0.0020388222897 
-0.0020350546204 -0.0020349735769 -0.0020476950547 -0.0020635541354 -0.0020630018032 -0.0020430050718 -0.0020222937605 -0.0020176675794 -0.0020274596931 
-0.0020409048293 -0.0020498102974 -0.0020477212995 -0.0020291698932 -0.0019963970128 -0.0019624089113 -0.0019446214621 -0.00195521885 -0.0019941215031 
-0.0020464990531 -0.0020882729391 -0.002102166906 -0.0020909905751 -0.0020709789495 -0.0020564991543 -0.0020521235443 -0.0020542899351 -0.0020607687048 
-0.002074078203 -0.0020622821615 -0.0020640775606 -0.002046002594 -0.0020202429342 -0.0020082913312 -0.0020173952764 -0.0020352231687 -0.0020447166602 
-0.0020438740327 -0.002046485939 -0.0020627937443 -0.0020878255334 -0.0021048252995 -0.0020949138646 -0.0020534185377 -0.0020007719878 -0.0019675818248 
-0.0019665582748 -0.0019861869738 -0.0020109078532 -0.0020339811085 -0.0020514394503 -0.0020604519726 -0.0020653987946 -0.0020720689593 -0.0020733436531 
-0.0020557985343 -0.002023599559 -0.0020003191071 -0.0020016126983 -0.0020196745646 -0.0020386451193 -0.0020501801642 -0.002049939372 -0.0020322422146 
-0.00199686524 -0.0019553852112 -0.00192660865 -0.0019259042232 -0.0019570308615 -0.0020093054999 -0.0020608490071 -0.0020910339839 -0.0020956098319 
-0.0020857788545 -0.0020735358831 -0.0020628427515 -0.0020528144831 -0.0020466280192 -0.0020509133292 -0.0020364178786 -0.0020331048225 -0.0020194127801 
-0.0020050161845 -0.0020049994394 -0.0020225087269 -0.0020453454951 -0.0020574218531 -0.0020560944518 -0.0020552173949 -0.0020678453957 -0.0020925426217 
-0.002113654599 -0.0021099547705 -0.0020733072425 -0.002022403963 -0.0019873407362 -0.0019796555091 -0.001987774695 -0.0020004870169 -0.002018166682 
-0.0020405098628 -0.0020607141011 -0.0020745236769 -0.0020818432899 -0.0020769918101 -0.002052412985 -0.0020168109995 -0.0019943650794 -0.0019982030838 
-0.002017593586 -0.0020361614289 -0.002048021306 -0.0020515043084 -0.0020408900313 -0.0020131270722 -0.0019756050401 -0.001943428574 -0.0019308261753 
-0.001944833069 -0.0019824469974 -0.0020299438822 -0.0020689266758 -0.002089115812 -0.0020934220395 -0.0020887530876 -0.0020777098307 -0.0020609759034 
-0.0020442956954 -0.0020362625927 -0.0020247485863 -0.0020109853223 -0.0019948872371 -0.0019851144718 -0.0019926306733 -0.0020177563256 -0.0020468129721 
-0.0020618519517 -0.0020583794731 -0.0020509063818 -0.0020565622937 -0.0020791236397 -0.0021056186585 -0.0021126064267 -0.0020867029119 -0.0020428955649 
-0.0020102433074 -0.0019991816225 -0.0019968698344 -0.0019940133934 -0.0019977828755 -0.0020156510763 -0.0020420700778 -0.0020657989244 -0.0020789081589 
-0.0020750610323 -0.0020516213496 -0.00202026476 -0.0020032433727 -0.0020102099641 -0.0020294909482 -0.0020465822192 -0.0020582792428 -0.0020648443457 
-0.0020613087033 -0.0020435504504 -0.0020149909093 -0.0019843408718 -0.0019610898908 -0.0019538901431 -0.0019680297796 -0.0019999774893 -0.0020366947815 
-0.0020654359515 -0.0020826820847 -0.0020901104351 -0.0020876375341 -0.0020747186659 -0.0020556225696 -0.0020380658744 -0.0020234076347 -0.0020035043788 
-0.0019857841983 -0.0019774861205 -0.0019877204145 -0.0020161758751 -0.0020474022878 -0.0020604310278 -0.0020497172865 -0.0020323277848 -0.0020301704197 
-0.0020518183394 -0.002086703348 -0.0021094478902 -0.0021009582689 -0.0020706431439 -0.0020450797729 -0.0020341952556 -0.0020246304206 -0.0020072930526 
-0.0019932128725 -0.0019976513544 -0.0020206621962 -0.0020487066509 -0.0020671473973 -0.0020669948094 -0.0020483166788 -0.0020245916221 -0.0020157188737 
-0.0020283005445 -0.0020503157584 -0.0020682557173 -0.0020795037765 -0.0020855060818 -0.0020835768703 -0.0020710399859 -0.002049827311 -0.0020234386958 
-0.0019952098821 -0.0019722277101 -0.0019646299615 -0.0019765872511 -0.0020008169158 -0.0020267647571 -0.0020501425965 -0.002069530908 -0.0020805638853 
-0.002078635785 -0.0020644779186 -0.0020441770087 -0.0020162494232 -0.0020013927002 -0.0019902361929 -0.0019866183855 -0.0019989175067 -0.0020283206773 
-0.0020586916273 -0.002066466972 -0.002046056763 -0.0020180191423 -0.0020086092712 -0.0020295614165 -0.0020717040883 -0.0021088375462 -0.002117922022 
-0.0021028994805 -0.002086974311 -0.0020800171669 -0.0020691233766 -0.0020437049797 -0.0020140187291 -0.0019995869293 -0.0020082255535 -0.0020305644033 
-0.002049737092 -0.0020530947869 -0.0020395835141 -0.0020221619352 -0.0020193491259 -0.002037547732 -0.0020654562698 -0.0020881295179 -0.0020999700391 
-0.002102250191 -0.0020956685473 -0.0020810788587 -0.0020619690202 -0.0020405940229 -0.0020158667361 -0.0019901233517 -0.0019722876629 -0.0019687330437 
-0.0019762778143 -0.001990030724 -0.002010222671 -0.0020348994898 -0.0020548337591 -0.002060936719 -0.0020520585344 -0.0020344705098 -0.0019988886675 
-0.0019974924092 -0.0019990137879 -0.002003060441 -0.002018252552 -0.0020489965331 -0.0020802968764 -0.002086907135 -0.0020622009846 -0.0020282057928 
-0.0020136651991 -0.002031635668 -0.0020733247958 -0.0021133544171 -0.0021288139594 -0.0021218117787 -0.0021134827574 -0.0021135279112 -0.0021088097883 
-0.0020847993921 -0.0020467672611 -0.002014841483 -0.0020045244239 -0.0020147880111 -0.0020312226473 -0.0020378719821 -0.0020287062623 -0.0020131316768 
-0.0020098967246 -0.0020297854032 -0.0020646911023 -0.0020962942432 -0.0021119045513 -0.0021098926143 -0.0020944268247 -0.0020717137507 -0.0020496285006 
-0.0020329203627 -0.0020188991603 -0.0020040441103 -0.0019913330225 -0.0019841470576 -0.0019802870181 -0.0019802861281 -0.0019905100818 -0.0020101567578 
-0.0020267989385 -0.0020299439656 -0.0020206101646 -0.0020073642415 -0.0019848036396 -0.0019969893466 -0.0020082113221 -0.0020154581324 -0.0020296060467 
-0.0020599442883 -0.0020946910937 -0.0021078090214 -0.0020888633553 -0.0020569843834 -0.0020407518956 -0.0020531983328 -0.0020847428573 -0.0021114027481 
-0.0021149983731 -0.0021023102693 -0.0020960708282 -0.002105394737 -0.0021144857905 -0.002101879959 -0.0020655077404 -0.002024748529 -0.0020015882068 
-0.0020031659482 -0.0020188712287 -0.0020299613408 -0.0020238219246 -0.0020051389786 -0.0019944848919 -0.0020103360667 -0.0020500424149 -0.0020915827191 
-0.002112977561 -0.0021073444132 -0.0020817300595 -0.002048960532 -0.0020229084313 -0.0020119547121 -0.0020125547441 -0.0020156701869 -0.0020180697421 
-0.0020193275452 -0.0020158841878 -0.0020095303494 -0.0020093100424 -0.0020155970767 -0.0020166827813 -0.0020061042702 -0.00199072707 -0.0019815980921 
-0.0019856342656 -0.0020051632277 -0.0020167628619 -0.002017679588 -0.0020231367516 -0.0020479430853 -0.0020845686761 -0.002107057534 -0.0020990728608 
-0.002073095454 -0.0020561125621 -0.0020616718938 -0.0020788451089 -0.0020836676882 -0.0020643913444 -0.0020371140482 -0.0020289101243 -0.0020478725513 
-0.0020740847713 -0.0020782446593 -0.0020512361937 -0.0020127745989 -0.0019903457604 -0.0019958070881 -0.0020192572232 -0.0020384827326 -0.0020354814362 
-0.0020115760062 -0.0019896588588 -0.0019957335153 -0.0020329535816 -0.0020774968483 -0.0021007971005 -0.0020919058417 -0.002059861359 -0.0020224900419 
-0.0019978368565 -0.0019959872833 -0.0020110734814 -0.0020289688012 -0.002043686745 -0.0020558857014 -0.0020621445809 -0.0020606240455 -0.0020560979082 
-0.0020479773717 -0.0020289291417 -0.0020010123095 -0.0019783744456 -0.0019730376238 -0.0019985750161 -0.0020183492169 -0.0020226961789 -0.0020116226365 
-0.0020050178656 -0.0020213011678 -0.0020558969671 -0.002083292385 -0.0020814476428 -0.0020558819035 -0.0020337257612 -0.0020323021629 -0.0020404378075 
-0.0020315664931 -0.0019964288278 -0.00195806973 -0.0019472750839 -0.0019715501028 -0.0020081756222 -0.0020231710592 -0.0020043406642 -0.0019743299361 
-0.0019652168291 -0.0019889681584 -0.002031284568 -0.0020650364289 -0.0020691195458 -0.0020433148462 -0.002011326431 -0.002003095211 -0.0020265540624 
-0.0020607466555 -0.0020778091403 -0.0020669269198 -0.0020375018145 -0.0020069816811 -0.0019922394712 -0.0020015033718 -0.0020249639274 -0.0020444842711 
-0.0020562726873 -0.0020693795491 -0.002085359972 -0.0020967572484 -0.0020976361907 -0.0020825802787 -0.0020491969428 -0.0020090317994 -0.0019824412553 
-0.0019807384873 -0.002015194507 -0.0020319074088 -0.0020282693878 -0.0020079595429 -0.0019934240195 -0.0020031931624 -0.0020334517677 -0.0020591119405 
-0.0020541405163 -0.0020196190124 -0.0019860473182 -0.0019782708173 -0.0019876408069 -0.0019838638159 -0.0019530937221 -0.0019167173761 -0.001905262924 
-0.0019266102356 -0.0019591467385 -0.0019701303254 -0.0019500600342 -0.0019263011714 -0.0019336179384 -0.0019806519916 -0.0020459130738 -0.0020974089245 
-0.0021131517656 -0.002092165091 -0.0020557658908 -0.0020327661251 -0.002034953279 -0.0020495433911 -0.0020561302019 -0.0020469467373 -0.0020291137905 
-0.0020142220018 -0.0020132688444 -0.0020299321105 -0.0020501939957 -0.0020542956429 -0.0020449424519 -0.0020441670507 -0.0020626266611 -0.0020889615242 
-0.0021040962243 -0.002094009266 -0.0020587455691 -0.0020169617236 -0.0019925228408 -0.0019950938364 -0.0020315934553 -0.0020459982279 -0.0020390768213 
-0.0020172242811 -0.0020021488941 -0.0020095596987 -0.0020351015058 -0.0020547125433 -0.002040913353 -0.0019930181575 -0.00194548572 -0.0019312932145 
-0.0019474443633 -0.0019630414473 -0.0019565146229 -0.0019381117435 -0.0019310878271 -0.00194344951 -0.00195979648 -0.0019552741848 -0.0019264093615 
-0.0019030937125 -0.0019195145433 -0.0019800606602 -0.0020574681921 -0.0021178779128 -0.0021414992044 -0.0021275003498 -0.0020923192081 -0.0020601191961 
-0.0020455103788 -0.0020449130449 -0.0020458379253 -0.0020422127293 -0.0020371897107 -0.0020364844027 -0.0020456108887 -0.0020631634138 -0.0020710707812 
-0.0020498208229 -0.0020099447016 -0.0019861354976 -0.0019991838337 -0.0020374409231 -0.0020710739488 -0.0020760756821 -0.0020514143919 -0.0020187465242 
-0.0020023569474 -0.0020102144802 -0.0020465741366 -0.0020593063319 -0.0020538500997 -0.0020378478641 -0.00202935031 -0.0020389525116 -0.002060696311 
-0.00207264786 -0.0020492302556 -0.0019899613131 -0.0019306630159 -0.0019091296853 -0.0019290597816 -0.0019641807573 -0.0019890453275 -0.0019990857584 
-0.0020033810862 -0.0020079042627 -0.0020068460394 -0.0019875342 -0.001951634728 -0.0019264156508 -0.0019419039554 -0.0019989518447 -0.0020682353609 
-0.0021184463222 -0.0021356581885 -0.0021215202734 -0.002088513881 -0.0020559137613 -0.0020389805003 -0.0020383971228 -0.0020432669156 -0.00204517891 
-0.0020455673027 -0.0020509169762 -0.0020659659089 -0.0020845051297 -0.0020826758694 -0.0020398886979 -0.00197252914 -0.0019251417385 -0.0019278997271 
-0.0019720773211 -0.0020219754938 -0.0020455198103 -0.0020381889504 -0.0020203926101 -0.0020140836321 -0.0020258857933 -0.0020577513671 -0.0020664818202 
-0.0020638118265 -0.0020579457632 -0.0020617057464 -0.0020784256845 -0.002098630455 -0.0021032472473 -0.002072382909 -0.0020075943921 -0.0019424136731 
-0.0019140439608 -0.0019308982423 -0.0019742073894 -0.0020205991255 -0.0020552834668 -0.0020727521965 -0.0020747535966 -0.0020644902217 -0.002040753049 
-0.0020068541526 -0.0019829070031 -0.001992065501 -0.0020326839346 -0.0020774173286 -0.0021016012357 -0.0020991412747 -0.0020756956521 -0.0020427521783 
-0.0020168938536 -0.0020117379698 -0.0020251643389 -0.002040015837 -0.0020429608201 -0.00203930347 -0.0020447685339 -0.0020679627346 -0.0020971933927 
-0.0020992558132 -0.0020488539305 -0.0019650085422 -0.0018991889291 -0.0018895166458 -0.0019320246332 -0.0019899296359 -0.0020271491612 -0.0020355628025 
-0.0020313774172 -0.0020319596924 -0.0020426549245 -0.0020617673994 -0.0020638249639 -0.002062785967 -0.0020669243798 -0.0020841671202 -0.0021100775425 
-0.0021302820256 -0.0021292320796 -0.0020959482788 -0.0020352075248 -0.0019743071803 -0.0019439224391 -0.0019534401029 -0.0019912781773 -0.0020396310596 
-0.0020813807762 -0.0021037545887 -0.002105544658 -0.0020953632509 -0.00207859107 -0.0020566282846 -0.0020399833387 -0.0020431579678 -0.0020629468417 
-0.0020780604529 -0.0020734141114 -0.0020499383133 -0.0020161310742 -0.0019838169047 -0.0019686189291 -0.0019810954626 -0.0020120275233 -0.0020346597998 
-0.0020318270911 -0.0020175083915 -0.0020210785419 -0.0020565852635 -0.0021063660117 -0.0021267283092 -0.0020853060297 -0.0020000474798 -0.0019256379134 
-0.0019053703623 -0.0019400773396 -0.0019954025948 -0.0020356861512 -0.0020511716423 -0.0020532557899 -0.0020538198629 -0.0020570601161 -0.0020553679591 
-0.0020523805547 -0.0020524402666 -0.0020625645589 -0.002087421116 -0.0021174007435 -0.0021352552558 -0.0021307316337 -0.0021029283691 -0.0020589702814 
-0.0020157252284 -0.0019916321409 -0.0019932351033 -0.0020150264279 -0.0020469371852 -0.0020764109466 -0.0020919686185 -0.0020926446025 -0.0020882544552 
-0.0020850509292 -0.0020807253466 -0.0020761822383 -0.0020765563168 -0.0020780664371 -0.0020687249412 -0.0020437817334 -0.0020088506226 -0.0019727486505 
-0.0019460309661 -0.0019421856078 -0.001967911839 -0.0020078322391 -0.0020290042547 -0.0020139245909 -0.0019854005024 -0.0019840841427 -0.0020284732994 
-0.0020977145605 -0.0021423146483 -0.0021236497981 -0.0020540148097 -0.0019855634913 -0.0019625760885 -0.0019891515472 -0.0020348175735 -0.0020673783731 
-0.002078207013 -0.0020758926108 -0.0020686011917 -0.0020607403564 -0.0020391894461 -0.002038186096 -0.0020413782679 -0.0020526572534 -0.0020751619488 
-0.0020988678561 -0.0021088618505 -0.0021023181294 -0.0020867268589 -0.0020689711044 -0.0020531123985 -0.0020421364709 -0.0020369668906 -0.0020371830114 
-0.002042144354 -0.0020487846819 -0.0020525057337 -0.0020536092459 -0.0020582902972 -0.0020693041889 -0.0020814162963 -0.002088810499 -0.0020889581266 
-0.0020787101061 -0.0020558433542 -0.002024276223 -0.0019917808969 -0.0019648167198 -0.0019493681895 -0.0019537900481 -0.0019812690239 -0.0020157632392 
-0.0020256948889 -0.0019959869245 -0.0019530724619 -0.0019418160498 -0.0019837971452 -0.0020602262304 -0.002123509512 -0.0021324456942 -0.0020903803017 
-0.002040923188 -0.0020251032153 -0.002048306173 -0.0020833522773 -0.0021020234664 -0.0020989013232 -0.0020833893936 -0.002063952646 -0.0020473876994 
-0.0020205918446 -0.0020299268509 -0.0020399701845 -0.0020501252757 -0.0020628049006 -0.0020717402587 -0.0020693691919 -0.0020608353679 -0.0020582017532 
-0.0020656649386 -0.0020763146564 -0.0020798901236 -0.0020709318577 -0.0020518184595 -0.0020304386369 -0.0020149048414 -0.0020094497391 -0.0020142889163 
-0.0020280960962 -0.0020483692452 -0.0020692660253 -0.0020825985231 -0.0020821153398 -0.0020669486974 -0.0020426789731 -0.002018258777 -0.0020006235038 
-0.0019915501207 -0.001990004973 -0.0019975630648 -0.0020159467242 -0.0020350172541 -0.0020312772574 -0.0019920284548 -0.0019397164631 -0.0019162961124 
-0.0019454739254 -0.0020142425575 -0.0020822325593 -0.0021104754415 -0.0020943242204 -0.0020663145911 -0.0020616847089 -0.0020854206026 -0.0021121100012 
-0.0021163791831 -0.0020968450993 -0.0020668700159 -0.0020384981183 -0.0020214068821 -0.0020080539993 -0.002031222568 -0.0020496701346 -0.0020587305839 
-0.0020602028437 -0.0020530891391 -0.0020388133215 -0.0020285063507 -0.0020342991359 -0.002056550067 -0.0020829074721 -0.0020972806181 -0.002089897528 
-0.0020621421628 -0.0020252419304 -0.0019952628067 -0.0019842318789 -0.001992311629 -0.0020111763845 -0.0020336162474 -0.0020544013008 -0.0020658726146 
-0.0020617387839 -0.0020450438757 -0.0020269440405 -0.002017428065 -0.0020195771147 -0.0020295891275 -0.0020400286391 -0.0020469270853 -0.0020528227504 
-0.0020570214146 -0.0020465158653 -0.0020088246125 -0.0019566934673 -0.0019250497357 -0.0019386377872 -0.0019903416213 -0.002047965649 -0.0020787970188 
-0.0020755470843 -0.0020615808625 -0.0020652821662 -0.0020896726451 -0.0021100437527 -0.002103157519 -0.0020715259488 -0.0020332324792 -0.0020042092224 
-0.0019951690901 -0.0020058898514 -0.0020374550655 -0.002059274471 -0.0020657211849 -0.0020587409738 -0.0020415962524 -0.0020221665427 -0.0020135311178 
-0.0020238267097 -0.0020491926623 -0.0020776927253 -0.0020960867533 -0.0020945074296 -0.0020703653151 -0.0020313672314 -0.0019950973681 -0.0019789857264 
-0.0019860530782 -0.0020055603124 -0.0020270135017 -0.0020444759078 -0.0020505241172 -0.0020404122113 -0.0020218569115 -0.00200991384 -0.0020129366947 
-0.002028778808 -0.0020495937432 -0.0020652531555 -0.0020692080481 -0.0020655935494 -0.0020623929384 -0.0020553337728 -0.0020303274608 -0.0019890702275 
-0.0019581237422 -0.001961407558 -0.0019950909331 -0.0020338438479 -0.0020538762059 -0.0020509880103 -0.0020427777604 -0.0020503810138 -0.0020738426279 
-0.002089438397 -0.0020763943978 -0.0020399201119 -0.0020012486857 -0.001978582352 -0.0019810915209 -0.002015316456 -0.0020423591162 -0.0020563615494 
-0.0020556867064 -0.0020439320863 -0.0020260351921 -0.002011401225 -0.0020107134348 -0.0020255815981 -0.0020478243396 -0.0020689622233 -0.0020838067141 
-0.0020866209782 -0.0020712556443 -0.0020382775702 -0.0020012933181 -0.0019800152375 -0.0019825885511 -0.0020007454984 -0.0020226815169 -0.0020398214156 
-0.0020430793816 -0.0020289071775 -0.0020087054884 -0.0019995725327 -0.0020071173207 -0.0020246623112 -0.0020431179267 -0.0020538991166 -0.0020512134567 
-0.0020408782003 -0.0020365248117 -0.0020391107936 -0.0020327446617 -0.0020103449979 -0.0019900164097 -0.0019922808352 -0.0020139090514 -0.0020353150372 
-0.0020422023852 -0.0020355024419 -0.0020289392012 -0.0020368517334 -0.0020572318695 -0.0020695204631 -0.0020561519448 -0.0020225299565 -0.0019898818749 
-0.0019764118737 -0.0019877202832 -0.0020325500849 -0.0020429845244 -0.0020401546247 -0.0020295664328 -0.0020170601045 -0.0020062880188 -0.0020035455792 
-0.002014438753 -0.0020343289516 -0.0020518870549 -0.0020623309931 -0.0020685236894 -0.0020707615247 -0.0020624347207 -0.0020378223576 -0.0020039308665 
-0.0019793991758 -0.0019768481912 -0.0019926226171 -0.0020156074189 -0.0020350561172 -0.002040331347 -0.002028138617 -0.0020104434912 -0.0020034305064 
-0.0020097142614 -0.0020200591884 -0.002026420753 -0.0020240460455 -0.0020104171498 -0.0019935591742 -0.0019900257874 -0.0020030614909 -0.00201548646 
-0.0020141651645 -0.0020089954211 -0.0020153674953 -0.0020306646146 -0.0020415663621 -0.0020416084148 -0.0020343404448 -0.0020286692549 -0.0020332607487 
-0.002047338682 -0.0020572791325 -0.0020494851228 -0.0020263513325 -0.0020046789458 -0.0019998289255 -0.0020132671696 -0.0020469873079 -0.0020398182345 
-0.0020229868637 -0.0020068882572 -0.0019981043902 -0.0019972709713 -0.0020055376369 -0.0020236630861 -0.0020443501956 -0.0020564439339 -0.0020579794881 
-0.0020560309253 -0.0020549535173 -0.0020498834462 -0.0020323699023 -0.0020037922335 -0.0019795757598 -0.0019740234005 -0.0019870820427 -0.0020094874126 