# vtk DataFile Version 4.2
vtk output
ASCII
DATASET UNSTRUCTURED_GRID
POINTS 2601 double
0 0 0 1 0 0 2 0 0 
3 0 0 4 0 0 5 0 0 
6 0 0 7 0 0 8 0 0 
9 0 0 10 0 0 11 0 0 
12 0 0 13 0 0 14 0 0 
15 0 0 16 0 0 17 0 0 
18 0 0 19 0 0 20 0 0 
21 0 0 22 0 0 23 0 0 
24 0 0 25 0 0 26 0 0 
27 0 0 28 0 0 29 0 0 
30 0 0 31 0 0 32 0 0 
33 0 0 34 0 0 35 0 0 
36 0 0 37 0 0 38 0 0 
39 0 0 40 0 0 41 0 0 
42 0 0 43 0 0 44 0 0 
45 0 0 46 0 0 47 0 0 
48 0 0 49 0 0 50 0 0 
0 1 0 1 1 0 2 1 0 
3 1 0 4 1 0 5 1 0 
6 1 0 7 1 0 8 1 0 
9 1 0 10 1 0 11 1 0 
12 1 0 13 1 0 14 1 0 
15 1 0 16 1 0 17 1 0 
18 1 0 19 1 0 20 1 0 
21 1 0 22 1 0 23 1 0 
24 1 0 25 1 0 26 1 0 
27 1 0 28 1 0 29 1 0 
30 1 0 31 1 0 32 1 0 
33 1 0 34 1 0 35 1 0 
36 1 0 37 1 0 38 1 0 
39 1 0 40 1 0 41 1 0 
42 1 0 43 1 0 44 1 0 
45 1 0 46 1 0 47 1 0 
48 1 0 49 1 0 50 1 0 
0 2 0 1 2 0 2 2 0 
3 2 0 4 2 0 5 2 0 
6 2 0 7 2 0 8 2 0 
9 2 0 10 2 0 11 2 0 
12 2 0 13 2 0 14 2 0 
15 2 0 16 2 0 17 2 0 
18 2 0 19 2 0 20 2 0 
21 2 0 22 2 0 23 2 0 
24 2 0 25 2 0 26 2 0 
27 2 0 28 2 0 29 2 0 
30 2 0 31 2 0 32 2 0 
33 2 0 34 2 0 35 2 0 
36 2 0 37 2 0 38 2 0 
39 2 0 40 2 0 41 2 0 
42 2 0 43 2 0 44 2 0 
45 2 0 46 2 0 47 2 0 
48 2 0 49 2 0 50 2 0 
0 3 0 1 3 0 2 3 0 
3 3 0 4 3 0 5 3 0 
6 3 0 7 3 0 8 3 0 
9 3 0 10 3 0 11 3 0 
12 3 0 13 3 0 14 3 0 
15 3 0 16 3 0 17 3 0 
18 3 0 19 3 0 20 3 0 
21 3 0 22 3 0 23 3 0 
24 3 0 25 3 0 26 3 0 
27 3 0 28 3 0 29 3 0 
30 3 0 31 3 0 32 3 0 
33 3 0 34 3 0 35 3 0 
36 3 0 37 3 0 38 3 0 
39 3 0 40 3 0 41 3 0 
42 3 0 43 3 0 44 3 0 
45 3 0 46 3 0 47 3 0 
48 3 0 49 3 0 50 3 0 
0 4 0 1 4 0 2 4 0 
3 4 0 4 4 0 5 4 0 
6 4 0 7 4 0 8 4 0 
9 4 0 10 4 0 11 4 0 
12 4 0 13 4 0 14 4 0 
15 4 0 16 4 0 17 4 0 
18 4 0 19 4 0 20 4 0 
21 4 0 22 4 0 23 4 0 
24 4 0 25 4 0 26 4 0 
27 4 0 28 4 0 29 4 0 
30 4 0 31 4 0 32 4 0 
33 4 0 34 4 0 35 4 0 
36 4 0 37 4 0 38 4 0 
39 4 0 40 4 0 41 4 0 
42 4 0 43 4 0 44 4 0 
45 4 0 46 4 0 47 4 0 
48 4 0 49 4 0 50 4 0 
0 5 0 1 5 0 2 5 0 
3 5 0 4 5 0 5 5 0 
6 5 0 7 5 0 8 5 0 
9 5 0 10 5 0 11 5 0 
12 5 0 13 5 0 14 5 0 
15 5 0 16 5 0 17 5 0 
18 5 0 19 5 0 20 5 0 
21 5 0 22 5 0 23 5 0 
24 5 0 25 5 0 26 5 0 
27 5 0 28 5 0 29 5 0 
30 5 0 31 5 0 32 5 0 
33 5 0 34 5 0 35 5 0 
36 5 0 37 5 0 38 5 0 
39 5 0 40 5 0 41 5 0 
42 5 0 43 5 0 44 5 0 
45 5 0 46 5 0 47 5 0 
48 5 0 49 5 0 50 5 0 
0 6 0 1 6 0 2 6 0 
3 6 0 4 6 0 5 6 0 
6 6 0 7 6 0 8 6 0 
9 6 0 10 6 0 11 6 0 
12 6 0 13 6 0 14 6 0 
15 6 0 16 6 0 17 6 0 
18 6 0 19 6 0 20 6 0 
21 6 0 22 6 0 23 6 0 
24 6 0 25 6 0 26 6 0 
27 6 0 28 6 0 29 6 0 
30 6 0 31 6 0 32 6 0 
33 6 0 34 6 0 35 6 0 
36 6 0 37 6 0 38 6 0 
39 6 0 40 6 0 41 6 0 
42 6 0 43 6 0 44 6 0 
45 6 0 46 6 0 47 6 0 
48 6 0 49 6 0 50 6 0 
0 7 0 1 7 0 2 7 0 
3 7 0 4 7 0 5 7 0 
6 7 0 7 7 0 8 7 0 
9 7 0 10 7 0 11 7 0 
12 7 0 13 7 0 14 7 0 
15 7 0 16 7 0 17 7 0 
18 7 0 19 7 0 20 7 0 
21 7 0 22 7 0 23 7 0 
24 7 0 25 7 0 26 7 0 
27 7 0 28 7 0 29 7 0 
30 7 0 31 7 0 32 7 0 
33 7 0 34 7 0 35 7 0 
36 7 0 37 7 0 38 7 0 
39 7 0 40 7 0 41 7 0 
42 7 0 43 7 0 44 7 0 
45 7 0 46 7 0 47 7 0 
48 7 0 49 7 0 50 7 0 
0 8 0 1 8 0 2 8 0 
3 8 0 4 8 0 5 8 0 
6 8 0 7 8 0 8 8 0 
9 8 0 10 8 0 11 8 0 
12 8 0 13 8 0 14 8 0 
15 8 0 16 8 0 17 8 0 
18 8 0 19 8 0 20 8 0 
21 8 0 22 8 0 23 8 0 
24 8 0 25 8 0 26 8 0 
27 8 0 28 8 0 29 8 0 
30 8 0 31 8 0 32 8 0 
33 8 0 34 8 0 35 8 0 
36 8 0 37 8 0 38 8 0 
39 8 0 40 8 0 41 8 0 
42 8 0 43 8 0 44 8 0 
45 8 0 46 8 0 47 8 0 
48 8 0 49 8 0 50 8 0 
0 9 0 1 9 0 2 9 0 
3 9 0 4 9 0 5 9 0 
6 9 0 7 9 0 8 9 0 
9 9 0 10 9 0 11 9 0 
12 9 0 13 9 0 14 9 0 
15 9 0 16 9 0 17 9 0 
18 9 0 19 9 0 20 9 0 
21 9 0 22 9 0 23 9 0 
24 9 0 25 9 0 26 9 0 
27 9 0 28 9 0 29 9 0 
30 9 0 31 9 0 32 9 0 
33 9 0 34 9 0 35 9 0 
36 9 0 37 9 0 38 9 0 
39 9 0 40 9 0 41 9 0 
42 9 0 43 9 0 44 9 0 
45 9 0 46 9 0 47 9 0 
48 9 0 49 9 0 50 9 0 
0 10 0 1 10 0 2 10 0 
3 10 0 4 10 0 5 10 0 
6 10 0 7 10 0 8 10 0 
9 10 0 10 10 0 11 10 0 
12 10 0 13 10 0 14 10 0 
15 10 0 16 10 0 17 10 0 
18 10 0 19 10 0 20 10 0 
21 10 0 22 10 0 23 10 0 
24 10 0 25 10 0 26 10 0 
27 10 0 28 10 0 29 10 0 
30 10 0 31 10 0 32 10 0 
33 10 0 34 10 0 35 10 0 
36 10 0 37 10 0 38 10 0 
39 10 0 40 10 0 41 10 0 
42 10 0 43 10 0 44 10 0 
45 10 0 46 10 0 47 10 0 
48 10 0 49 10 0 50 10 0 
0 11 0 1 11 0 2 11 0 
3 11 0 4 11 0 5 11 0 
6 11 0 7 11 0 8 11 0 
9 11 0 10 11 0 11 11 0 
12 11 0 13 11 0 14 11 0 
15 11 0 16 11 0 17 11 0 
18 11 0 19 11 0 20 11 0 
21 11 0 22 11 0 23 11 0 
24 11 0 25 11 0 26 11 0 
27 11 0 28 11 0 29 11 0 
30 11 0 31 11 0 32 11 0 
33 11 0 34 11 0 35 11 0 
36 11 0 37 11 0 38 11 0 
39 11 0 40 11 0 41 11 0 
42 11 0 43 11 0 44 11 0 
45 11 0 46 11 0 47 11 0 
48 11 0 49 11 0 50 11 0 
0 12 0 1 12 0 2 12 0 
3 12 0 4 12 0 5 12 0 
6 12 0 7 12 0 8 12 0 
9 12 0 10 12 0 11 12 0 
12 12 0 13 12 0 14 12 0 
15 12 0 16 12 0 17 12 0 
18 12 0 19 12 0 20 12 0 
21 12 0 22 12 0 23 12 0 
24 12 0 25 12 0 26 12 0 
27 12 0 28 12 0 29 12 0 
30 12 0 31 12 0 32 12 0 
33 12 0 34 12 0 35 12 0 
36 12 0 37 12 0 38 12 0 
39 12 0 40 12 0 41 12 0 
42 12 0 43 12 0 44 12 0 
45 12 0 46 12 0 47 12 0 
48 12 0 49 12 0 50 12 0 
0 13 0 1 13 0 2 13 0 
3 13 0 4 13 0 5 13 0 
6 13 0 7 13 0 8 13 0 
9 13 0 10 13 0 11 13 0 
12 13 0 13 13 0 14 13 0 
15 13 0 16 13 0 17 13 0 
18 13 0 19 13 0 20 13 0 
21 13 0 22 13 0 23 13 0 
24 13 0 25 13 0 26 13 0 
27 13 0 28 13 0 29 13 0 
30 13 0 31 13 0 32 13 0 
33 13 0 34 13 0 35 13 0 
36 13 0 37 13 0 38 13 0 
39 13 0 40 13 0 41 13 0 
42 13 0 43 13 0 44 13 0 
45 13 0 46 13 0 47 13 0 
48 13 0 49 13 0 50 13 0 
0 14 0 1 14 0 2 14 0 
3 14 0 4 14 0 5 14 0 
6 14 0 7 14 0 8 14 0 
9 14 0 10 14 0 11 14 0 
12 14 0 13 14 0 14 14 0 
15 14 0 16 14 0 17 14 0 
18 14 0 19 14 0 20 14 0 
21 14 0 22 14 0 23 14 0 
24 14 0 25 14 0 26 14 0 
27 14 0 28 14 0 29 14 0 
30 14 0 31 14 0 32 14 0 
33 14 0 34 14 0 35 14 0 
36 14 0 37 14 0 38 14 0 
39 14 0 40 14 0 41 14 0 
42 14 0 43 14 0 44 14 0 
45 14 0 46 14 0 47 14 0 
48 14 0 49 14 0 50 14 0 
0 15 0 1 15 0 2 15 0 
3 15 0 4 15 0 5 15 0 
6 15 0 7 15 0 8 15 0 
9 15 0 10 15 0 11 15 0 
12 15 0 13 15 0 14 15 0 
15 15 0 16 15 0 17 15 0 
18 15 0 19 15 0 20 15 0 
21 15 0 22 15 0 23 15 0 
24 15 0 25 15 0 26 15 0 
27 15 0 28 15 0 29 15 0 
30 15 0 31 15 0 32 15 0 
33 15 0 34 15 0 35 15 0 
36 15 0 37 15 0 38 15 0 
39 15 0 40 15 0 41 15 0 
42 15 0 43 15 0 44 15 0 
45 15 0 46 15 0 47 15 0 
48 15 0 49 15 0 50 15 0 
0 16 0 1 16 0 2 16 0 
3 16 0 4 16 0 5 16 0 
6 16 0 7 16 0 8 16 0 
9 16 0 10 16 0 11 16 0 
12 16 0 13 16 0 14 16 0 
15 16 0 16 16 0 17 16 0 
18 16 0 19 16 0 20 16 0 
21 16 0 22 16 0 23 16 0 
24 16 0 25 16 0 26 16 0 
27 16 0 28 16 0 29 16 0 
30 16 0 31 16 0 32 16 0 
33 16 0 34 16 0 35 16 0 
36 16 0 37 16 0 38 16 0 
39 16 0 40 16 0 41 16 0 
42 16 0 43 16 0 44 16 0 
45 16 0 46 16 0 47 16 0 
48 16 0 49 16 0 50 16 0 
0 17 0 1 17 0 2 17 0 
3 17 0 4 17 0 5 17 0 
6 17 0 7 17 0 8 17 0 
9 17 0 10 17 0 11 17 0 
12 17 0 13 17 0 14 17 0 
15 17 0 16 17 0 17 17 0 
18 17 0 19 17 0 20 17 0 
21 17 0 22 17 0 23 17 0 
24 17 0 25 17 0 26 17 0 
27 17 0 28 17 0 29 17 0 
30 17 0 31 17 0 32 17 0 
33 17 0 34 17 0 35 17 0 
36 17 0 37 17 0 38 17 0 
39 17 0 40 17 0 41 17 0 
42 17 0 43 17 0 44 17 0 
45 17 0 46 17 0 47 17 0 
48 17 0 49 17 0 50 17 0 
0 18 0 1 18 0 2 18 0 
3 18 0 4 18 0 5 18 0 
6 18 0 7 18 0 8 18 0 
9 18 0 10 18 0 11 18 0 
12 18 0 13 18 0 14 18 0 
15 18 0 16 18 0 17 18 0 
18 18 0 19 18 0 20 18 0 
21 18 0 22 18 0 23 18 0 
24 18 0 25 18 0 26 18 0 
27 18 0 28 18 0 29 18 0 
30 18 0 31 18 0 32 18 0 
33 18 0 34 18 0 35 18 0 
36 18 0 37 18 0 38 18 0 
39 18 0 40 18 0 41 18 0 
42 18 0 43 18 0 44 18 0 
45 18 0 46 18 0 47 18 0 
48 18 0 49 18 0 50 18 0 
0 19 0 1 19 0 2 19 0 
3 19 0 4 19 0 5 19 0 
6 19 0 7 19 0 8 19 0 
9 19 0 10 19 0 11 19 0 
12 19 0 13 19 0 14 19 0 
15 19 0 16 19 0 17 19 0 
18 19 0 19 19 0 20 19 0 
21 19 0 22 19 0 23 19 0 
24 19 0 25 19 0 26 19 0 
27 19 0 28 19 0 29 19 0 
30 19 0 31 19 0 32 19 0 
33 19 0 34 19 0 35 19 0 
36 19 0 37 19 0 38 19 0 
39 19 0 40 19 0 41 19 0 
42 19 0 43 19 0 44 19 0 
45 19 0 46 19 0 47 19 0 
48 19 0 49 19 0 50 19 0 
0 20 0 1 20 0 2 20 0 
3 20 0 4 20 0 5 20 0 
6 20 0 7 20 0 8 20 0 
9 20 0 10 20 0 11 20 0 
12 20 0 13 20 0 14 20 0 
15 20 0 16 20 0 17 20 0 
18 20 0 19 20 0 20 20 0 
21 20 0 22 20 0 23 20 0 
24 20 0 25 20 0 26 20 0 
27 20 0 28 20 0 29 20 0 
30 20 0 31 20 0 32 20 0 
33 20 0 34 20 0 35 20 0 
36 20 0 37 20 0 38 20 0 
39 20 0 40 20 0 41 20 0 
42 20 0 43 20 0 44 20 0 
45 20 0 46 20 0 47 20 0 
48 20 0 49 20 0 50 20 0 
0 21 0 1 21 0 2 21 0 
3 21 0 4 21 0 5 21 0 
6 21 0 7 21 0 8 21 0 
9 21 0 10 21 0 11 21 0 
12 21 0 13 21 0 14 21 0 
15 21 0 16 21 0 17 21 0 
18 21 0 19 21 0 20 21 0 
21 21 0 22 21 0 23 21 0 
24 21 0 25 21 0 26 21 0 
27 21 0 28 21 0 29 21 0 
30 21 0 31 21 0 32 21 0 
33 21 0 34 21 0 35 21 0 
36 21 0 37 21 0 38 21 0 
39 21 0 40 21 0 41 21 0 
42 21 0 43 21 0 44 21 0 
45 21 0 46 21 0 47 21 0 
48 21 0 49 21 0 50 21 0 
0 22 0 1 22 0 2 22 0 
3 22 0 4 22 0 5 22 0 
6 22 0 7 22 0 8 22 0 
9 22 0 10 22 0 11 22 0 
12 22 0 13 22 0 14 22 0 
15 22 0 16 22 0 17 22 0 
18 22 0 19 22 0 20 22 0 
21 22 0 22 22 0 23 22 0 
24 22 0 25 22 0 26 22 0 
27 22 0 28 22 0 29 22 0 
30 22 0 31 22 0 32 22 0 
33 22 0 34 22 0 35 22 0 
36 22 0 37 22 0 38 22 0 
39 22 0 40 22 0 41 22 0 
42 22 0 43 22 0 44 22 0 
45 22 0 46 22 0 47 22 0 
48 22 0 49 22 0 50 22 0 
0 23 0 1 23 0 2 23 0 
3 23 0 4 23 0 5 23 0 
6 23 0 7 23 0 8 23 0 
9 23 0 10 23 0 11 23 0 
12 23 0 13 23 0 14 23 0 
15 23 0 16 23 0 17 23 0 
18 23 0 19 23 0 20 23 0 
21 23 0 22 23 0 23 23 0 
24 23 0 25 23 0 26 23 0 
27 23 0 28 23 0 29 23 0 
30 23 0 31 23 0 32 23 0 
33 23 0 34 23 0 35 23 0 
36 23 0 37 23 0 38 23 0 
39 23 0 40 23 0 41 23 0 
42 23 0 43 23 0 44 23 0 
45 23 0 46 23 0 47 23 0 
48 23 0 49 23 0 50 23 0 
0 24 0 1 24 0 2 24 0 
3 24 0 4 24 0 5 24 0 
6 24 0 7 24 0 8 24 0 
9 24 0 10 24 0 11 24 0 
12 24 0 13 24 0 14 24 0 
15 24 0 16 24 0 17 24 0 
18 24 0 19 24 0 20 24 0 
21 24 0 22 24 0 23 24 0 
24 24 0 25 24 0 26 24 0 
27 24 0 28 24 0 29 24 0 
30 24 0 31 24 0 32 24 0 
33 24 0 34 24 0 35 24 0 
36 24 0 37 24 0 38 24 0 
39 24 0 40 24 0 41 24 0 
42 24 0 43 24 0 44 24 0 
45 24 0 46 24 0 47 24 0 
48 24 0 49 24 0 50 24 0 
0 25 0 1 25 0 2 25 0 
3 25 0 4 25 0 5 25 0 
[...]
CELL_DATA 2500
SCALARS $\mu_{AB} double
LOOKUP_TABLE default
-0.00096995934504 -0.00079323211369 -0.00076495398231 -0.00080605366492 -0.00094709025221 -0.0013425846503 -0.0017114529326 -0.00184966641 -0.0019336175625 
-0.0019528679058 -0.0018919321125 -0.0017637929365 -0.0013767112292 -0.00085326299789 -0.0007860725698 -0.00082774313627 -0.00087595320781 -0.00083991543716 
-0.00079131045019 -0.00079381242766 -0.00088490312707 -0.00097417034152 -0.0010013304731 -0.0010068713954 -0.00098782761597 -0.00095453149548 -0.00096331273194 
-0.001024126373 -0.0010459550096 -0.0010484323528 -0.0010401249974 -0.00102199871 -0.0010073715353 -0.00099214002065 -0.00097342324951 -0.00092372514228 
-0.00090208146037 -0.0008944049373 -0.00089073664858 -0.00089004092034 -0.00089994013124 -0.00095866781311 -0.0010500570542 -0.0011451397104 -0.001209272481 
-0.0012291249328 -0.0012378338995 -0.001234189975 -0.0012159681794 -0.0011707984371 -0.0011026444813 -0.00096451531784 -0.00094366185984 -0.00096733785937 
-0.0010570447146 -0.0013453900753 -0.0016802834241 -0.0018277288509 -0.001894969451 -0.0018944332719 -0.0018390823598 -0.0017225253239 -0.0014238826108 
-0.00094303848584 -0.0008491545271 -0.00088710875094 -0.00091209135333 -0.00089533604287 -0.00085330573695 -0.00086429551829 -0.00091442074037 -0.0009603160267 
-0.00099902210266 -0.0010083136385 -0.00099480985867 -0.00098271418992 -0.0010221304272 -0.0010404651158 -0.0010497855309 -0.0010497311662 -0.0010408044375 
-0.0010294232015 -0.0010108560892 -0.000979073337 -0.00092943634791 -0.00090664129258 -0.00089905278019 -0.00089338031115 -0.00088673923727 -0.00088496970214 
-0.0008913982306 -0.00091994272561 -0.001053647298 -0.0011799034926 -0.0012186991433 -0.0012299187926 -0.0012329796992 -0.0012265721587 -0.0012146766055 
-0.0011935709252 -0.0011015118981 -0.0010175749504 -0.00099806535779 -0.00099806807475 -0.001021563056 -0.0011296114347 -0.0014702100702 -0.0016943776755 
-0.0017426392782 -0.001690816479 -0.001607734173 -0.0014579182912 -0.0012623833383 -0.0010258838181 -0.00089487912411 -0.00090802577721 -0.00092987574404 
-0.0009183957429 -0.00091919476711 -0.00094219495689 -0.0009354969753 -0.00094932992643 -0.00098048609735 -0.0010009885816 -0.0010045931409 -0.0010113323555 
-0.0010251586925 -0.0010286008083 -0.001037114951 -0.0010365424681 -0.0010220050662 -0.0010139624086 -0.0010065216305 -0.00096619924322 -0.00091640635607 
-0.00090728641453 -0.00090290964722 -0.00090016335899 -0.00088744630378 -0.00088578897524 -0.00089351581674 -0.00091509872634 -0.0010480781321 -0.001170088162 
-0.001210680477 -0.0012193113167 -0.0012155174315 -0.0012114082155 -0.0012063771698 -0.0011881596883 -0.0010474227495 -0.001021986682 -0.001008062722 
-0.0010023145451 -0.0010078937234 -0.0010330414941 -0.0011527665482 -0.0013724381841 -0.0013568498246 -0.0012388280966 -0.0011429279572 -0.0010486406373 
-0.0010259644237 -0.00099693089969 -0.0009604681061 -0.00095343829427 -0.00096349964063 -0.0009772425547 -0.00098420541647 -0.00096102479952 -0.00094521205284 
-0.00095536756246 -0.00098672389019 -0.0010026484936 -0.0010119672877 -0.0010087640393 -0.001005085457 -0.0010012108624 -0.0009877256627 -0.00096974987863 
-0.00098185554418 -0.00098840303587 -0.00098654689069 -0.0009600680277 -0.00091959407824 -0.00091130302717 -0.00090894606512 -0.00090900069137 -0.0009022758341 
-0.00089676168591 -0.00090684222623 -0.00094815824989 -0.0010802052736 -0.0011422212673 -0.0011904376248 -0.0012051179357 -0.0012031842528 -0.0012004536907 
-0.0011941615819 -0.0011547207056 -0.001038094122 -0.0010270463444 -0.0010164277667 -0.001001725851 -0.0009974372424 -0.0010034222566 -0.0010203985425 
-0.0010484537921 -0.0010093345165 -0.00099849709778 -0.00097454112522 -0.00094952816447 -0.00094834979288 -0.00096264573951 -0.00098813778331 -0.0010072489187 
-0.0010175996575 -0.0010208750451 -0.0010156763127 -0.00098965338762 -0.00096655990574 -0.00098535860394 -0.0010178586245 -0.0010267390587 -0.0010256318304 
-0.0010042681535 -0.00097902373717 -0.00096828748776 -0.00094133964782 -0.00092879650593 -0.00094460691403 -0.00095993986598 -0.00096461895565 -0.0009570597411 
-0.00093202110927 -0.00091618380521 -0.00091296388038 -0.00091103477444 -0.00090913460262 -0.00091286166467 -0.00094169533318 -0.0010683495234 -0.0011160186646 
-0.0011344660209 -0.0011497466999 -0.0011828835216 -0.0011934422899 -0.0011900866773 -0.0011679076836 -0.0010887781337 -0.0010326994585 -0.0010260693147 
-0.0010166428887 -0.00099531257193 -0.0009882206623 -0.00098917664033 -0.000986244617 -0.00095216805698 -0.00094009121174 -0.00093991966656 -0.00094711440797 
-0.00093958741967 -0.00095073952428 -0.00096062974644 -0.0010036132678 -0.0010417413997 -0.0010441448815 -0.001028320823 -0.001018383366 -0.00099234502485 
-0.00097234476697 -0.001006768337 -0.0010338358151 -0.0010429660332 -0.0010391000536 -0.0010139019703 -0.00097494260844 -0.00094978570508 -0.00092493509086 
-0.0009171958137 -0.0009285420023 -0.00094542565213 -0.00096250422383 -0.00096507946268 -0.00095393685103 -0.00093484086992 -0.00092071760286 -0.00091799837668 
-0.00092001104861 -0.00094206809869 -0.0010621892071 -0.0011146219493 -0.0011279607784 -0.0011358381445 -0.0011417457642 -0.0011468109135 -0.0011591186581 
-0.001149414281 -0.0011133137389 -0.0010574587711 -0.0010230327896 -0.0010188040476 -0.0010082030198 -0.00099571710031 -0.0009881280956 -0.00098585308961 
-0.00097807210921 -0.0009464166834 -0.00094124289557 -0.00095199960593 -0.00098249899277 -0.0009786404798 -0.0009781473356 -0.00098672188215 -0.0010367202862 
-0.0010875927127 -0.0010779364374 -0.0010186397731 -0.00099592542461 -0.00095947121929 -0.00094414701523 -0.00097891650028 -0.0010188013537 -0.0010302830497 
-0.0010345044879 -0.001022665543 -0.00099940575863 -0.00097808714056 -0.00094834880759 -0.00094140328095 -0.00095312835052 -0.00096759501287 -0.00097932848546 
-0.00098150530484 -0.00098056812815 -0.00097862038015 -0.00096564101029 -0.00094548551487 -0.00095478953383 -0.0010439214139 -0.0011168485723 -0.0011340184383 
-0.0011358670878 -0.0011384627245 -0.001139801719 -0.0011377510249 -0.0011295553282 -0.0010953915086 -0.0010645600685 -0.0010372426975 -0.0010050185282 
-0.0010109247775 -0.0010040824395 -0.00099684467253 -0.00099285949831 -0.00099367698503 -0.00099042327276 -0.00096847629425 -0.00096608185887 -0.00098602965129 
-0.0010092392359 -0.0010121857952 -0.0010077439522 -0.0010232045254 -0.0011068400862 -0.0011760682379 -0.0011740655639 -0.0010773948938 -0.00098010157174 
-0.00093207145041 -0.00091796919018 -0.00094178472812 -0.00098467244541 -0.0010053447857 -0.0010237585561 -0.0010280607626 -0.0010193829104 -0.0010044773354 
-0.00098124941039 -0.00097912950984 -0.00099870741957 -0.0010053032867 -0.0010018782833 -0.00099674913632 -0.00099733109165 -0.00099756018939 -0.00099565522528 
-0.00099346295966 -0.0010081585561 -0.0010892266805 -0.001133486517 -0.001143882705 -0.0011448480525 -0.0011390446585 -0.0011362782146 -0.0011284192421 
-0.0010980031298 -0.0010344068938 -0.0010225742184 -0.0010115944026 -0.00098277038904 -0.00098614751616 -0.00099883733404 -0.0010018539011 -0.001016384431 
-0.0010357690283 -0.0010267246175 -0.0010013951179 -0.00098948946428 -0.001006278063 -0.0010217280099 -0.0010255883336 -0.0010278915353 -0.0010925011345 
-0.0012074495761 -0.0012698239403 -0.0012722033932 -0.0012199903736 -0.0010678063598 -0.00093968052099 -0.00090713923855 -0.00092347337408 -0.000949832067 
-0.00097596002472 -0.0010117724924 -0.001040405292 -0.0010438622257 -0.0010352479419 -0.0010125421416 -0.0010144930805 -0.0010341207845 -0.0010359311718 
-0.0010208540286 -0.0010018007927 -0.00099952869282 -0.00099987960613 -0.00099877120091 -0.00099656504711 -0.0010012040405 -0.0010573687472 -0.0011286073907 
-0.0011427448146 -0.0011421709092 -0.0011371704653 -0.0011298132218 -0.0011086577309 -0.0010239015945 -0.0010088192268 -0.001012061991 -0.0010024328032 
-0.00096328731682 -0.00096005786144 -0.00098223982522 -0.0010137532819 -0.0010472248661 -0.0010668758381 -0.0010615787326 -0.0010358481827 -0.0010091115211 
-0.0010071632952 -0.0010157704633 -0.0010190244066 -0.0010500194716 -0.0011728185164 -0.0012546354965 -0.0012933823111 -0.00129468443 -0.0012592356458 
-0.0011722100327 -0.00097159705618 -0.0008452900551 -0.0008467076917 -0.00088392741895 -0.00092950050272 -0.00098876114678 -0.0010489500133 -0.001060615396 
-0.0010623059346 -0.0010642249297 -0.0010628638972 -0.0010619879639 -0.0010575060373 -0.0010247307416 -0.0010016096611 -0.00099787814514 -0.00099815933336 
-0.00099455991027 -0.00098962276656 -0.00099056712958 -0.0010078420256 -0.0010816055521 -0.0011246299452 -0.0011274736431 -0.0011234633767 -0.0011100222999 
-0.0010290014967 -0.00098510148459 -0.00098815120409 -0.00099530363378 -0.00098371169064 -0.00095037347261 -0.0009458778476 -0.00097476303216 -0.0010097405307 
-0.0010465788658 -0.0010682189247 -0.0010667567394 -0.0010534956151 -0.0010136284297 -0.00097801719373 -0.00094758795675 -0.00093093631831 -0.00099502903973 
-0.0011707292032 -0.0012368503403 -0.0012859771979 -0.0012898599741 -0.0012407979502 -0.0011388273058 -0.00091507770859 -0.00081319643134 -0.00083047896906 
-0.00087475999304 -0.00091931305076 -0.00095302948169 -0.0010350292477 -0.0010669176936 -0.0010750887643 -0.0010812381941 -0.001082523534 -0.0010777530988 
-0.001068226033 -0.0010175563909 -0.00099877154081 -0.00099403527194 -0.00099075931403 -0.00097899680135 -0.00097821562261 -0.00097864443235 -0.00098229137453 
-0.0010059443214 -0.0010330855809 -0.001061774005 -0.001067891703 -0.0010352786195 -0.00097327904264 -0.0009641163751 -0.00097372017061 -0.00098431801294 
-0.00096733336768 -0.00095926587124 -0.00094833942384 -0.00096063162527 -0.00098844349573 -0.0010296050424 -0.0010601780151 -0.0010544073324 -0.0010451322791 
-0.00099930490697 -0.00093992151232 -0.00090615028094 -0.00088422642958 -0.00090371911654 -0.0010565414491 -0.0011768178852 -0.00124230516 -0.0012446271549 
-0.001196620749 -0.0010590947152 -0.00086440405904 -0.0007913827719 -0.0008139131415 -0.00089107764873 -0.00093738900912 -0.0009568724452 -0.00098863340722 
-0.0010546014534 -0.0010716065039 -0.0010771297003 -0.0010797288193 -0.0010765003066 -0.0010568237661 -0.0010101028504 -0.00099382964307 -0.00098905929382 
-0.0009823952418 -0.00097332532158 -0.000970409653 -0.00096878304909 -0.00095974234927 -0.00093058983368 -0.00091476155634 -0.00091306160448 -0.00091502822896 
-0.00093708543663 -0.00095775702886 -0.00096531115915 -0.00098352135746 -0.0010044402884 -0.00098780130904 -0.00098763254175 -0.00096951788225 -0.00097084833304 
-0.0009915750774 -0.0010194592539 -0.0010438925836 -0.001039306328 -0.0010271908169 -0.00096905968351 -0.00093762863842 -0.00090241517451 -0.00086985032408 
-0.00086453228456 -0.00093115470461 -0.0011003366337 -0.0011989191131 -0.0012192491558 -0.0011738669252 -0.0010147224785 -0.00084173269855 -0.00078681900692 
-0.00080904511694 -0.00093693387973 -0.00096413154814 -0.00097296457007 -0.00097873757863 -0.001008690618 -0.0010396650365 -0.001053049337 -0.0010577239906 
-0.0010479073155 -0.0010271761451 -0.0010042497531 -0.00098985365154 -0.00098468001981 -0.00097815394714 -0.00097186449245 -0.00096709039841 -0.00096011406023 
-0.00092363435308 -0.00090574531791 -0.00089868486473 -0.00089387413506 -0.00089136123804 -0.0008961586987 -0.00093720016803 -0.00098220729243 -0.0010061569981 
-0.001023660452 -0.0010161347989 -0.0010050014402 -0.00099847222278 -0.0010006803486 -0.0010193960783 -0.0010388170589 -0.0010418580372 -0.0010332734559 
-0.0010176237638 -0.00097416743664 -0.00095985270787 -0.00092900506897 -0.00086900025515 -0.0008382661225 -0.00086561031109 -0.00098355994621 -0.0011514726957 
-0.0011936916194 -0.0011515379495 -0.00094891855722 -0.00083163881673 -0.00081925554009 -0.00087640708731 -0.000965795453 -0.00098133589798 -0.0009823901902 
-0.00097538850735 -0.00095450137385 -0.00093979991669 -0.00094724220192 -0.00096075719314 -0.00097921596616 -0.00099165071299 -0.00098942506638 -0.00098311688763 
-0.00098030679314 -0.00097561498185 -0.00096945627499 -0.00096096259088 -0.00093358385596 -0.00090954383236 -0.00090412816814 -0.0008978989472 -0.0008897882296 
-0.00088648737651 -0.00088976827296 -0.00090126455288 -0.00096751768783 -0.0010100365272 -0.0010312671969 -0.001027294641 -0.0010349232549 -0.0010393799502 
-0.0010314782005 -0.0010436764599 -0.0010541956239 -0.0010494900581 -0.0010357345394 -0.0010075549859 -0.00098482254162 -0.00097774587719 -0.00096533275176 
-0.00089056679314 -0.00083714527798 -0.00083608685224 -0.0008820766062 -0.0010679717932 -0.0011409275327 -0.0010884689956 -0.0009366960958 -0.0008559032313 
-0.00086569820321 -0.00091669551534 -0.00096296949777 -0.00098360801563 -0.00098235387071 -0.00095388559458 -0.00092650122266 -0.00092262272307 -0.00093104706151 
-0.00094549486455 -0.00096010888869 -0.00096928629703 -0.00097338392202 -0.00096696265311 -0.00096028439734 -0.00095697105331 -0.00095247762445 -0.00094141136775 
-0.00091850767416 -0.00090908717011 -0.0009062895274 -0.00090317581586 -0.00089234700686 -0.00089025014397 -0.00089208531916 -0.00089709900613 -0.00093103472291 
-0.00098798175651 -0.0010213653847 -0.0010300238413 -0.0010387305784 -0.0010664470276 -0.001068945595 -0.0010575524896 -0.0010569011067 -0.0010458566923 
-0.0010253830589 -0.0010049065515 -0.00099092328228 -0.00098463989925 -0.00096624185167 -0.00091544943218 -0.00086467090595 -0.00084261066108 -0.00086081520785 
-0.00095801746437 -0.0010000596093 -0.00098157673416 -0.00093150287698 -0.00088664466626 -0.00088519762632 -0.00092988671158 -0.00096699498703 -0.00098272839844 
-0.00097041140192 -0.00093392619678 -0.00092551640331 -0.00092166623082 -0.00092996914168 -0.00095099063861 -0.00096483954469 -0.00096758063834 -0.00096265402513 
-0.000945510709 -0.00093599797183 -0.00093599313367 -0.00093424814727 -0.00093017845425 -0.00091677240003 -0.00090991385955 -0.00090843748394 -0.00090892558483 
-0.00090781590795 -0.00090068592171 -0.0008969688928 -0.00089825125401 -0.00091071552659 -0.00094102523654 -0.0009728568027 -0.0010047247304 -0.00098766347347 
-0.001043681338 -0.0010730549135 -0.0010634216995 -0.0010336224244 -0.00099692244227 -0.00098139539384 -0.0010040156374 -0.0010087920648 -0.00099000243135 
-0.00096848821572 -0.00093376902226 -0.00089262332854 -0.00086786015192 -0.00088323382726 -0.0009083359824 -0.00091195943304 -0.00091416225413 -0.00091715719146 
-0.0009135106708 -0.00091864079299 -0.00094632992021 -0.00097719905912 -0.00099061473728 -0.00097174852803 -0.00094253308877 -0.00093720388554 -0.00093364608633 
-0.00093733025222 -0.00096323330666 -0.00097034280795 -0.00096958098005 -0.00095295281588 -0.00092843904796 -0.00092986793546 -0.00093237702821 -0.00093158212506 
-0.00092944350296 -0.00092415160309 -0.00091301710022 -0.00091112421579 -0.00091171875541 -0.00091087753722 -0.00090712286919 -0.0009020060766 -0.00089712390963 
-0.00088209340313 -0.0008779227383 -0.00089945478596 -0.00093967240725 -0.00093742104544 -0.00096672839639 -0.001011694648 -0.00099181904297 -0.00091932976071 
-0.00084072591156 -0.00086068561501 -0.00099718294292 -0.0010815800906 -0.0010387167998 -0.00098503664906 -0.00094476802292 -0.00090714861516 -0.00089692850035 
-0.0009040867757 -0.00090304912466 -0.00090219063752 -0.00090634707099 -0.00091527273607 -0.0009243370549 -0.00094644912234 -0.00098488387913 -0.0010186369826 
-0.0010321150244 -0.0010091705436 -0.00096329281975 -0.00095385930735 -0.00095554013259 -0.00096256985435 -0.00096803390855 -0.0009703295268 -0.00096563702591 
-0.00093113523838 -0.000919537137 -0.00092325116127 -0.00092819977645 -0.00093015812601 -0.00093077672422 -0.00093058620987 -0.00092710465403 -0.0009204797629 
-0.00092200666258 -0.00092221746055 -0.00091686991089 -0.00090730097792 -0.00087718216345 -0.00084133484805 -0.00084102366276 -0.00087728705449 -0.00091649394567 
-0.00092002711923 -0.0009176712209 -0.00091894529369 -0.00084137662403 -0.00067560405232 -0.00056313049838 -0.00075536248944 -0.00098771000106 -0.0011285190435 
-0.0011485317488 -0.001078119484 -0.0010031135643 -0.00094978508037 -0.00091753507849 -0.00091178195275 -0.00090650868394 -0.00090368521525 -0.00091012384451 
-0.00092074495411 -0.00093025324646 -0.00095492542266 -0.0010229791361 -0.0010722606178 -0.0010889703045 -0.0010791343451 -0.0010150425631 -0.00097310683802 
-0.00096727552073 -0.00096623229867 -0.00096629120396 -0.00096655713805 -0.00095633547172 -0.00091825397213 -0.00091354210548 -0.00091852555392 -0.00092677672691 
-0.00093771227889 -0.00093996438714 -0.00094198591389 -0.00095449286271 -0.00097888820164 -0.0009722543552 -0.00096832209675 -0.00096323876007 -0.00093424488663 
-0.00085273216277 -0.00082394186879 -0.00083005443802 -0.00086516497661 -0.00090546606573 -0.0008896371681 -0.00087535929756 -0.00085362658712 -0.00065408022755 
-0.00044941461572 -0.00047271914657 -0.00069186925946 -0.00095590579075 -0.0011176483851 -0.0011618698235 -0.0011388328683 -0.0010510506441 -0.00097390043292 
-0.00092665473354 -0.00092015842282 -0.00091403381648 -0.00090924759693 -0.00092103589606 -0.00093031421517 -0.00094184091711 -0.00096682943105 -0.0010658100687 
-0.0010970918269 -0.0011029527476 -0.0011017461769 -0.0010890202473 -0.0010203101147 -0.00097802406605 -0.00096815212166 -0.00096422147276 -0.0009605568313 
-0.00093824431134 -0.00091645777568 -0.00091570390921 -0.00092694219585 -0.00094920475539 -0.0009606806786 -0.00095615284867 -0.00096171431317 -0.0010060449851 
-0.0011024759343 -0.0011711073171 -0.0011918061625 -0.0011494363617 -0.0010199226508 -0.00085305526215 -0.00082764607922 -0.00082283227006 -0.00084817011462 
-0.00089606870627 -0.00084347888423 -0.00083466600016 -0.00080241483312 -0.00051018208557 -0.00041991241229 -0.00038030590055 -0.00053055276333 -0.00092432272299 
-0.001043181813 -0.0010694336502 -0.0010728388105 -0.001029690677 -0.00097103990755 -0.00092937374851 -0.00092325046653 -0.00091843320864 -0.00091598659033 
-0.00092666338969 -0.00093502955013 -0.00094995692489 -0.0010003704221 -0.0010868432729 -0.001103322049 -0.0011082274835 -0.001109322513 -0.0011053330649 
-0.0010886619687 -0.0010212911662 -0.0009714741059 -0.00095166948584 -0.00093685916989 -0.00092363148124 -0.00091940887405 -0.00092563786681 -0.00094060031389 
-0.00095877270845 -0.00096992561245 -0.00097205814827 -0.00098910412275 -0.0010962385939 -0.0012019649913 -0.0012463612126 -0.0012656775118 -0.0012564712575 
-0.0011493292637 -0.00090099955356 -0.00085990485546 -0.00084977598674 -0.00085542747497 -0.00084637701341 -0.00082853611734 -0.00082593610683 -0.0008125848874 
-0.00069299058365 -0.00062500985875 -0.00048150525015 -0.00050457616131 -0.00065858682734 -0.00072596961925 -0.00085418886837 -0.0008848287266 -0.00093689648553 
-0.00094427246465 -0.00092500643962 -0.00091893023259 -0.00091475380215 -0.00091336031419 -0.00091980804616 -0.00093145728317 -0.00095099265796 -0.0010486949746 
-0.0010936508499 -0.0011060978821 -0.0011086104595 -0.001111213288 -0.0011088393888 -0.0010979683401 -0.0010501378468 -0.00095160730558 -0.00091151130847 
-0.00091203336815 -0.00090529348866 -0.00089807424263 -0.00092340102682 -0.00094419981764 -0.00096430337386 -0.00097721210396 -0.00098755858952 -0.0010549140031 
-0.0011723019096 -0.0012172892062 -0.0012540463514 -0.0012798066184 -0.0012815812685 -0.0012363647145 -0.0010012844155 -0.00090196175745 -0.00088413564507 
-0.0008747986423 -0.00084122068964 -0.00085168201466 -0.00088255237208 -0.0010223453733 -0.001007106754 -0.00094463894622 -0.0008880748254 -0.00057705014976 
-0.00036626389422 -0.00043520837572 -0.00058864206211 -0.00068237905337 -0.00087012999852 -0.00091900986262 -0.00091195352573 -0.00090564069318 -0.00090443781568 
-0.00090339302205 -0.00091124327955 -0.00092715159552 -0.00096502137352 -0.0010689779743 -0.0010994211358 -0.0011090975281 -0.0011120161014 -0.001112003611 