# vtk DataFile Version 4.2
vtk output
ASCII
DATASET UNSTRUCTURED_GRID
POINTS 2601 double
0 0 0 1 0 0 2 0 0 
3 0 0 4 0 0 5 0 0 
6 0 0 7 0 0 8 0 0 
9 0 0 10 0 0 11 0 0 
12 0 0 13 0 0 14 0 0 
15 0 0 16 0 0 17 0 0 
18 0 0 19 0 0 20 0 0 
21 0 0 22 0 0 23 0 0 
24 0 0 25 0 0 26 0 0 
27 0 0 28 0 0 29 0 0 
30 0 0 31 0 0 32 0 0 
33 0 0 34 0 0 35 0 0 
36 0 0 37 0 0 38 0 0 
39 0 0 40 0 0 41 0 0 
42 0 0 43 0 0 44 0 0 
45 0 0 46 0 0 47 0 0 
48 0 0 49 0 0 50 0 0 
0 1 0 1 1 0 2 1 0 
3 1 0 4 1 0 5 1 0 
6 1 0 7 1 0 8 1 0 
9 1 0 10 1 0 11 1 0 
12 1 0 13 1 0 14 1 0 
15 1 0 16 1 0 17 1 0 
18 1 0 19 1 0 20 1 0 
21 1 0 22 1 0 23 1 0 
24 1 0 25 1 0 26 1 0 
27 1 0 28 1 0 29 1 0 
30 1 0 31 1 0 32 1 0 
33 1 0 34 1 0 35 1 0 
36 1 0 37 1 0 38 1 0 
39 1 0 40 1 0 41 1 0 
42 1 0 43 1 0 44 1 0 
45 1 0 46 1 0 47 1 0 
48 1 0 49 1 0 50 1 0 
0 2 0 1 2 0 2 2 0 
3 2 0 4 2 0 5 2 0 
6 2 0 7 2 0 8 2 0 
9 2 0 10 2 0 11 2 0 
12 2 0 13 2 0 14 2 0 
15 2 0 16 2 0 17 2 0 
18 2 0 19 2 0 20 2 0 
21 2 0 22 2 0 23 2 0 
24 2 0 25 2 0 26 2 0 
27 2 0 28 2 0 29 2 0 
30 2 0 31 2 0 32 2 0 
33 2 0 34 2 0 35 2 0 
36 2 0 37 2 0 38 2 0 
39 2 0 40 2 0 41 2 0 
42 2 0 43 2 0 44 2 0 
45 2 0 46 2 0 47 2 0 
48 2 0 49 2 0 50 2 0 
0 3 0 1 3 0 2 3 0 
3 3 0 4 3 0 5 3 0 
6 3 0 7 3 0 8 3 0 
9 3 0 10 3 0 11 3 0 
12 3 0 13 3 0 14 3 0 
15 3 0 16 3 0 17 3 0 
18 3 0 19 3 0 20 3 0 
21 3 0 22 3 0 23 3 0 
24 3 0 25 3 0 26 3 0 
27 3 0 28 3 0 29 3 0 
30 3 0 31 3 0 32 3 0 
33 3 0 34 3 0 35 3 0 
36 3 0 37 3 0 38 3 0 
39 3 0 40 3 0 41 3 0 
42 3 0 43 3 0 44 3 0 
45 3 0 46 3 0 47 3 0 
48 3 0 49 3 0 50 3 0 
0 4 0 1 4 0 2 4 0 
3 4 0 4 4 0 5 4 0 
6 4 0 7 4 0 8 4 0 
9 4 0 10 4 0 11 4 0 
12 4 0 13 4 0 14 4 0 
15 4 0 16 4 0 17 4 0 
18 4 0 19 4 0 20 4 0 
21 4 0 22 4 0 23 4 0 
24 4 0 25 4 0 26 4 0 
27 4 0 28 4 0 29 4 0 
30 4 0 31 4 0 32 4 0 
33 4 0 34 4 0 35 4 0 
36 4 0 37 4 0 38 4 0 
39 4 0 40 4 0 41 4 0 
42 4 0 43 4 0 44 4 0 
45 4 0 46 4 0 47 4 0 
48 4 0 49 4 0 50 4 0 
0 5 0 1 5 0 2 5 0 
3 5 0 4 5 0 5 5 0 
6 5 0 7 5 0 8 5 0 
9 5 0 10 5 0 11 5 0 
12 5 0 13 5 0 14 5 0 
15 5 0 16 5 0 17 5 0 
18 5 0 19 5 0 20 5 0 
21 5 0 22 5 0 23 5 0 
24 5 0 25 5 0 26 5 0 
27 5 0 28 5 0 29 5 0 
30 5 0 31 5 0 32 5 0 
33 5 0 34 5 0 35 5 0 
36 5 0 37 5 0 38 5 0 
39 5 0 40 5 0 41 5 0 
42 5 0 43 5 0 44 5 0 
45 5 0 46 5 0 47 5 0 
48 5 0 49 5 0 50 5 0 
0 6 0 1 6 0 2 6 0 
3 6 0 4 6 0 5 6 0 
6 6 0 7 6 0 8 6 0 
9 6 0 10 6 0 11 6 0 
12 6 0 13 6 0 14 6 0 
15 6 0 16 6 0 17 6 0 
18 6 0 19 6 0 20 6 0 
21 6 0 22 6 0 23 6 0 
24 6 0 25 6 0 26 6 0 
27 6 0 28 6 0 29 6 0 
30 6 0 31 6 0 32 6 0 
33 6 0 34 6 0 35 6 0 
36 6 0 37 6 0 38 6 0 
39 6 0 40 6 0 41 6 0 
42 6 0 43 6 0 44 6 0 
45 6 0 46 6 0 47 6 0 
48 6 0 49 6 0 50 6 0 
0 7 0 1 7 0 2 7 0 
3 7 0 4 7 0 5 7 0 
6 7 0 7 7 0 8 7 0 
9 7 0 10 7 0 11 7 0 
12 7 0 13 7 0 14 7 0 
15 7 0 16 7 0 17 7 0 
18 7 0 19 7 0 20 7 0 
21 7 0 22 7 0 23 7 0 
24 7 0 25 7 0 26 7 0 
27 7 0 28 7 0 29 7 0 
30 7 0 31 7 0 32 7 0 
33 7 0 34 7 0 35 7 0 
36 7 0 37 7 0 38 7 0 
39 7 0 40 7 0 41 7 0 
42 7 0 43 7 0 44 7 0 
45 7 0 46 7 0 47 7 0 
48 7 0 49 7 0 50 7 0 
0 8 0 1 8 0 2 8 0 
3 8 0 4 8 0 5 8 0 
6 8 0 7 8 0 8 8 0 
9 8 0 10 8 0 11 8 0 
12 8 0 13 8 0 14 8 0 
15 8 0 16 8 0 17 8 0 
18 8 0 19 8 0 20 8 0 
21 8 0 22 8 0 23 8 0 
24 8 0 25 8 0 26 8 0 
27 8 0 28 8 0 29 8 0 
30 8 0 31 8 0 32 8 0 
33 8 0 34 8 0 35 8 0 
36 8 0 37 8 0 38 8 0 
39 8 0 40 8 0 41 8 0 
42 8 0 43 8 0 44 8 0 
45 8 0 46 8 0 47 8 0 
48 8 0 49 8 0 50 8 0 
0 9 0 1 9 0 2 9 0 
3 9 0 4 9 0 5 9 0 
6 9 0 7 9 0 8 9 0 
9 9 0 10 9 0 11 9 0 
12 9 0 13 9 0 14 9 0 
15 9 0 16 9 0 17 9 0 
18 9 0 19 9 0 20 9 0 
21 9 0 22 9 0 23 9 0 
24 9 0 25 9 0 26 9 0 
27 9 0 28 9 0 29 9 0 
30 9 0 31 9 0 32 9 0 
33 9 0 34 9 0 35 9 0 
36 9 0 37 9 0 38 9 0 
39 9 0 40 9 0 41 9 0 
42 9 0 43 9 0 44 9 0 
45 9 0 46 9 0 47 9 0 
48 9 0 49 9 0 50 9 0 
0 10 0 1 10 0 2 10 0 
3 10 0 4 10 0 5 10 0 
6 10 0 7 10 0 8 10 0 
9 10 0 10 10 0 11 10 0 
12 10 0 13 10 0 14 10 0 
15 10 0 16 10 0 17 10 0 
18 10 0 19 10 0 20 10 0 
21 10 0 22 10 0 23 10 0 
24 10 0 25 10 0 26 10 0 
27 10 0 28 10 0 29 10 0 
30 10 0 31 10 0 32 10 0 
33 10 0 34 10 0 35 10 0 
36 10 0 37 10 0 38 10 0 
39 10 0 40 10 0 41 10 0 
42 10 0 43 10 0 44 10 0 
45 10 0 46 10 0 47 10 0 
48 10 0 49 10 0 50 10 0 
0 11 0 1 11 0 2 11 0 
3 11 0 4 11 0 5 11 0 
6 11 0 7 11 0 8 11 0 
9 11 0 10 11 0 11 11 0 
12 11 0 13 11 0 14 11 0 
15 11 0 16 11 0 17 11 0 
18 11 0 19 11 0 20 11 0 
21 11 0 22 11 0 23 11 0 
24 11 0 25 11 0 26 11 0 
27 11 0 28 11 0 29 11 0 
30 11 0 31 11 0 32 11 0 
33 11 0 34 11 0 35 11 0 
36 11 0 37 11 0 38 11 0 
39 11 0 40 11 0 41 11 0 
42 11 0 43 11 0 44 11 0 
45 11 0 46 11 0 47 11 0 
48 11 0 49 11 0 50 11 0 
0 12 0 1 12 0 2 12 0 
3 12 0 4 12 0 5 12 0 
6 12 0 7 12 0 8 12 0 
9 12 0 10 12 0 11 12 0 
12 12 0 13 12 0 14 12 0 
15 12 0 16 12 0 17 12 0 
18 12 0 19 12 0 20 12 0 
21 12 0 22 12 0 23 12 0 
24 12 0 25 12 0 26 12 0 
27 12 0 28 12 0 29 12 0 
30 12 0 31 12 0 32 12 0 
33 12 0 34 12 0 35 12 0 
36 12 0 37 12 0 38 12 0 
39 12 0 40 12 0 41 12 0 
42 12 0 43 12 0 44 12 0 
45 12 0 46 12 0 47 12 0 
48 12 0 49 12 0 50 12 0 
0 13 0 1 13 0 2 13 0 
3 13 0 4 13 0 5 13 0 
6 13 0 7 13 0 8 13 0 
9 13 0 10 13 0 11 13 0 
12 13 0 13 13 0 14 13 0 
15 13 0 16 13 0 17 13 0 
18 13 0 19 13 0 20 13 0 
21 13 0 22 13 0 23 13 0 
24 13 0 25 13 0 26 13 0 
27 13 0 28 13 0 29 13 0 
30 13 0 31 13 0 32 13 0 
33 13 0 34 13 0 35 13 0 
36 13 0 37 13 0 38 13 0 
39 13 0 40 13 0 41 13 0 
42 13 0 43 13 0 44 13 0 
45 13 0 46 13 0 47 13 0 
48 13 0 49 13 0 50 13 0 
0 14 0 1 14 0 2 14 0 
3 14 0 4 14 0 5 14 0 
6 14 0 7 14 0 8 14 0 
9 14 0 10 14 0 11 14 0 
12 14 0 13 14 0 14 14 0 
15 14 0 16 14 0 17 14 0 
18 14 0 19 14 0 20 14 0 
21 14 0 22 14 0 23 14 0 
24 14 0 25 14 0 26 14 0 
27 14 0 28 14 0 29 14 0 
30 14 0 31 14 0 32 14 0 
33 14 0 34 14 0 35 14 0 
36 14 0 37 14 0 38 14 0 
39 14 0 40 14 0 41 14 0 
42 14 0 43 14 0 44 14 0 
45 14 0 46 14 0 47 14 0 
48 14 0 49 14 0 50 14 0 
0 15 0 1 15 0 2 15 0 
3 15 0 4 15 0 5 15 0 
6 15 0 7 15 0 8 15 0 
9 15 0 10 15 0 11 15 0 
12 15 0 13 15 0 14 15 0 
15 15 0 16 15 0 17 15 0 
18 15 0 19 15 0 20 15 0 
21 15 0 22 15 0 23 15 0 
24 15 0 25 15 0 26 15 0 
27 15 0 28 15 0 29 15 0 
30 15 0 31 15 0 32 15 0 
33 15 0 34 15 0 35 15 0 
36 15 0 37 15 0 38 15 0 
39 15 0 40 15 0 41 15 0 
42 15 0 43 15 0 44 15 0 
45 15 0 46 15 0 47 15 0 
48 15 0 49 15 0 50 15 0 
0 16 0 1 16 0 2 16 0 
3 16 0 4 16 0 5 16 0 
6 16 0 7 16 0 8 16 0 
9 16 0 10 16 0 11 16 0 
12 16 0 13 16 0 14 16 0 
15 16 0 16 16 0 17 16 0 
18 16 0 19 16 0 20 16 0 
21 16 0 22 16 0 23 16 0 
24 16 0 25 16 0 26 16 0 
27 16 0 28 16 0 29 16 0 
30 16 0 31 16 0 32 16 0 
33 16 0 34 16 0 35 16 0 
36 16 0 37 16 0 38 16 0 
39 16 0 40 16 0 41 16 0 
42 16 0 43 16 0 44 16 0 
45 16 0 46 16 0 47 16 0 
48 16 0 49 16 0 50 16 0 
0 17 0 1 17 0 2 17 0 
3 17 0 4 17 0 5 17 0 
6 17 0 7 17 0 8 17 0 
9 17 0 10 17 0 11 17 0 
12 17 0 13 17 0 14 17 0 
15 17 0 16 17 0 17 17 0 
18 17 0 19 17 0 20 17 0 
21 17 0 22 17 0 23 17 0 
24 17 0 25 17 0 26 17 0 
27 17 0 28 17 0 29 17 0 
30 17 0 31 17 0 32 17 0 
33 17 0 34 17 0 35 17 0 
36 17 0 37 17 0 38 17 0 
39 17 0 40 17 0 41 17 0 
42 17 0 43 17 0 44 17 0 
45 17 0 46 17 0 47 17 0 
48 17 0 49 17 0 50 17 0 
0 18 0 1 18 0 2 18 0 
3 18 0 4 18 0 5 18 0 
6 18 0 7 18 0 8 18 0 
9 18 0 10 18 0 11 18 0 
12 18 0 13 18 0 14 18 0 
15 18 0 16 18 0 17 18 0 
18 18 0 19 18 0 20 18 0 
21 18 0 22 18 0 23 18 0 
24 18 0 25 18 0 26 18 0 
27 18 0 28 18 0 29 18 0 
30 18 0 31 18 0 32 18 0 
33 18 0 34 18 0 35 18 0 
36 18 0 37 18 0 38 18 0 
39 18 0 40 18 0 41 18 0 
42 18 0 43 18 0 44 18 0 
45 18 0 46 18 0 47 18 0 
48 18 0 49 18 0 50 18 0 
0 19 0 1 19 0 2 19 0 
3 19 0 4 19 0 5 19 0 
6 19 0 7 19 0 8 19 0 
9 19 0 10 19 0 11 19 0 
12 19 0 13 19 0 14 19 0 
15 19 0 16 19 0 17 19 0 
18 19 0 19 19 0 20 19 0 
21 19 0 22 19 0 23 19 0 
24 19 0 25 19 0 26 19 0 
27 19 0 28 19 0 29 19 0 
30 19 0 31 19 0 32 19 0 
33 19 0 34 19 0 35 19 0 
36 19 0 37 19 0 38 19 0 
39 19 0 40 19 0 41 19 0 
42 19 0 43 19 0 44 19 0 
45 19 0 46 19 0 47 19 0 
48 19 0 49 19 0 50 19 0 
0 20 0 1 20 0 2 20 0 
3 20 0 4 20 0 5 20 0 
6 20 0 7 20 0 8 20 0 
9 20 0 10 20 0 11 20 0 
12 20 0 13 20 0 14 20 0 
15 20 0 16 20 0 17 20 0 
18 20 0 19 20 0 20 20 0 
21 20 0 22 20 0 23 20 0 
24 20 0 25 20 0 26 20 0 
27 20 0 28 20 0 29 20 0 
30 20 0 31 20 0 32 20 0 
33 20 0 34 20 0 35 20 0 
36 20 0 37 20 0 38 20 0 
39 20 0 40 20 0 41 20 0 
42 20 0 43 20 0 44 20 0 
45 20 0 46 20 0 47 20 0 
48 20 0 49 20 0 50 20 0 
0 21 0 1 21 0 2 21 0 
3 21 0 4 21 0 5 21 0 
6 21 0 7 21 0 8 21 0 
9 21 0 10 21 0 11 21 0 
12 21 0 13 21 0 14 21 0 
15 21 0 16 21 0 17 21 0 
18 21 0 19 21 0 20 21 0 
21 21 0 22 21 0 23 21 0 
24 21 0 25 21 0 26 21 0 
27 21 0 28 21 0 29 21 0 
30 21 0 31 21 0 32 21 0 
33 21 0 34 21 0 35 21 0 
36 21 0 37 21 0 38 21 0 
39 21 0 40 21 0 41 21 0 
42 21 0 43 21 0 44 21 0 
45 21 0 46 21 0 47 21 0 
48 21 0 49 21 0 50 21 0 
0 22 0 1 22 0 2 22 0 
3 22 0 4 22 0 5 22 0 
6 22 0 7 22 0 8 22 0 
9 22 0 10 22 0 11 22 0 
12 22 0 13 22 0 14 22 0 
15 22 0 16 22 0 17 22 0 
18 22 0 19 22 0 20 22 0 
21 22 0 22 22 0 23 22 0 
24 22 0 25 22 0 26 22 0 
27 22 0 28 22 0 29 22 0 
30 22 0 31 22 0 32 22 0 
33 22 0 34 22 0 35 22 0 
36 22 0 37 22 0 38 22 0 
39 22 0 40 22 0 41 22 0 
42 22 0 43 22 0 44 22 0 
45 22 0 46 22 0 47 22 0 
48 22 0 49 22 0 50 22 0 
0 23 0 1 23 0 2 23 0 
3 23 0 4 23 0 5 23 0 
6 23 0 7 23 0 8 23 0 
9 23 0 10 23 0 11 23 0 
12 23 0 13 23 0 14 23 0 
15 23 0 16 23 0 17 23 0 
18 23 0 19 23 0 20 23 0 
21 23 0 22 23 0 23 23 0 
24 23 0 25 23 0 26 23 0 
27 23 0 28 23 0 29 23 0 
30 23 0 31 23 0 32 23 0 
33 23 0 34 23 0 35 23 0 
36 23 0 37 23 0 38 23 0 
39 23 0 40 23 0 41 23 0 
42 23 0 43 23 0 44 23 0 
45 23 0 46 23 0 47 23 0 
48 23 0 49 23 0 50 23 0 
0 24 0 1 24 0 2 24 0 
3 24 0 4 24 0 5 24 0 
6 24 0 7 24 0 8 24 0 
9 24 0 10 24 0 11 24 0 
12 24 0 13 24 0 14 24 0 
15 24 0 16 24 0 17 24 0 
18 24 0 19 24 0 20 24 0 
21 24 0 22 24 0 23 24 0 
24 24 0 25 24 0 26 24 0 
27 24 0 28 24 0 29 24 0 
30 24 0 31 24 0 32 24 0 
33 24 0 34 24 0 35 24 0 
36 24 0 37 24 0 38 24 0 
39 24 0 40 24 0 41 24 0 
42 24 0 43 24 0 44 24 0 
45 24 0 46 24 0 47 24 0 
48 24 0 49 24 0 50 24 0 
0 25 0 1 25 0 2 25 0 
3 25 0 4 25 0 5 25 0 
[...]
CELL_DATA 2500
SCALARS $\mu_{AB} double
LOOKUP_TABLE default
-0.0021327083738 -0.002123044385 -0.0020740983277 -0.0020102471012 -0.0019727873122 -0.0019803980992 -0.0020141498196 -0.0020404463555 -0.0020461026675 
-0.0020458707948 -0.002057987072 -0.0020816263423 -0.0020932388848 -0.0020631333645 -0.001987335208 -0.0019028933265 -0.001862423899 -0.0018895711253 
-0.0019584384918 -0.0020181583162 -0.002035710971 -0.0020145564937 -0.0019837207103 -0.0019763858183 -0.002006133754 -0.0020543850479 -0.0020865290956 
-0.0020846720007 -0.0020607946517 -0.0020383572793 -0.0020296163444 -0.0020319896509 -0.002036249302 -0.0020330145308 -0.0020165294817 -0.0019893148643 
-0.0019647565017 -0.0019617335287 -0.0019917150057 -0.002047646624 -0.0021046034571 -0.0021344821439 -0.0021266183467 -0.002094377304 -0.0020611569751 
-0.0020438757892 -0.0020459471126 -0.0020614322766 -0.0020849018301 -0.0021126894533 -0.0021147868942 -0.0021150973049 -0.0020791620719 -0.0020259974608 
-0.0019918371089 -0.0019939380735 -0.0020164306499 -0.0020315653063 -0.0020313282043 -0.0020320293434 -0.0020504017853 -0.0020831806886 -0.0021049713289 
-0.0020855308348 -0.0020203212955 -0.0019431691053 -0.0019018665891 -0.0019188581092 -0.0019741269388 -0.0020274735673 -0.0020533699544 -0.002052059806 
-0.002040567782 -0.0020396764709 -0.0020568550193 -0.0020761408152 -0.0020739424021 -0.00204694458 -0.0020167606651 -0.002006350303 -0.0020194647006 
-0.0020433015236 -0.0020614064995 -0.0020608717469 -0.0020349327803 -0.0019872747235 -0.0019357648034 -0.0019073738954 -0.0019223622677 -0.001979394027 
-0.0020540265281 -0.0021115452905 -0.002129008534 -0.0021107752542 -0.0020792163071 -0.00205447395 -0.0020444170344 -0.0020480287636 -0.0020639653427 
-0.0020902646815 -0.002073404483 -0.0020762844816 -0.0020530152981 -0.0020179114776 -0.0019995297514 -0.0020099507701 -0.0020333994472 -0.0020457478891 
-0.0020425728229 -0.0020420470325 -0.0020616699846 -0.0020984371765 -0.0021267158924 -0.0021156101016 -0.0020587219318 -0.0019856859117 -0.0019393814141 
-0.0019410344618 -0.0019768179159 -0.0020182874388 -0.002048425215 -0.0020655301988 -0.0020753574106 -0.0020848824995 -0.0020938281049 -0.0020896504601 
-0.0020606336525 -0.0020155311219 -0.001981434697 -0.0019787547082 -0.0020040678946 -0.0020381860998 -0.002062547551 -0.0020653689505 -0.0020402040933 
-0.0019883946856 -0.00192560624 -0.0018803491767 -0.0018779876304 -0.0019236863984 -0.0019991288739 -0.0020722298839 -0.0021146510203 -0.0021196934383 
-0.0021017167366 -0.0020781843693 -0.0020582261447 -0.0020452680576 -0.0020436667963 -0.0020559963571 -0.0020377608731 -0.0020323165366 -0.002012962295 
-0.0019920922295 -0.0019913204648 -0.0020163065331 -0.0020486968648 -0.0020642784328 -0.0020591318132 -0.0020533159352 -0.0020680172454 -0.0021038045155 
-0.0021364211367 -0.0021336802347 -0.0020856594362 -0.0020172089675 -0.0019667552422 -0.0019538520624 -0.0019688025033 -0.0019926810084 -0.0020175854699 
-0.002044428714 -0.0020726982676 -0.0020973348245 -0.0021089264787 -0.0020959429169 -0.002055335855 -0.0020037843607 -0.001970378488 -0.0019720527882 
-0.0020004801128 -0.0020345942658 -0.0020586902583 -0.0020656439254 -0.0020503964891 -0.0020103308766 -0.0019537260897 -0.0019031140279 -0.0018834773157 
-0.0019058823528 -0.0019621972261 -0.0020300680011 -0.0020843333923 -0.0021114942142 -0.0021148528483 -0.0021039210189 -0.0020848096306 -0.0020621603125 
-0.0020439444976 -0.0020370551559 -0.0020221078724 -0.0020024597125 -0.0019791187634 -0.0019645182176 -0.0019754236065 -0.0020122074462 -0.002052872253 
-0.0020703751193 -0.0020592028445 -0.0020419985417 -0.0020466887607 -0.0020804042052 -0.0021211234952 -0.002133642516 -0.0021020149801 -0.0020452825964 
-0.001997589663 -0.001976226797 -0.0019730153382 -0.0019751460305 -0.0019834545941 -0.0020060014053 -0.0020427275477 -0.0020812004319 -0.002103183587 
-0.0020947681121 -0.0020568868895 -0.002010195971 -0.0019834460222 -0.0019899175415 -0.0020183155429 -0.0020483912855 -0.0020690553247 -0.0020784946606 
-0.002074160734 -0.0020513225662 -0.0020105843823 -0.0019637349779 -0.0019296920414 -0.0019229981443 -0.0019464723887 -0.0019903732474 -0.0020378479797 
-0.0020754157798 -0.0020991001212 -0.002109414314 -0.0021053694368 -0.0020873977087 -0.0020625191554 -0.0020400818013 -0.0020195686011 -0.0019913401819 
-0.001965390648 -0.0019537685881 -0.0019702847432 -0.0020124399584 -0.0020553753549 -0.0020687015314 -0.0020454696226 -0.0020121777784 -0.0020048804821 
-0.0020379853025 -0.0020915150311 -0.0021263683786 -0.0021193675794 -0.0020829189223 -0.0020466851369 -0.002025332416 -0.0020103314865 -0.0019915901348 
-0.0019761366829 -0.0019802793372 -0.0020098118566 -0.0020517860099 -0.0020826015366 -0.0020839201382 -0.0020560495005 -0.0020201625958 -0.0020037153175 
-0.0020174931471 -0.0020486900543 -0.0020775263732 -0.0020952094567 -0.0021033402353 -0.0021027070342 -0.0020900881495 -0.0020631184768 -0.0020245654616 
-0.001983791842 -0.0019538171952 -0.0019445709786 -0.0019571111818 -0.0019840595448 -0.0020168955031 -0.0020507991236 -0.0020808811929 -0.0020983799031 
-0.0020958923651 -0.0020757286921 -0.0020478808658 -0.0020127112431 -0.0019905694757 -0.00197207802 -0.0019666854655 -0.0019867196162 -0.0020299275419 
-0.0020710587345 -0.0020778149361 -0.0020425749119 -0.0019950562548 -0.0019774397626 -0.0020095065052 -0.0020730675256 -0.002126849344 -0.0021425512685 
-0.0021272596318 -0.0021069432513 -0.0020937239404 -0.0020769163645 -0.0020451169181 -0.0020069641933 -0.0019847378398 -0.0019927289744 -0.0020240913144 
-0.0020552494751 -0.0020633910351 -0.0020444293879 -0.0020173023545 -0.0020090298517 -0.0020311168404 -0.0020707941853 -0.0021059508829 -0.0021246117656 
-0.0021279794113 -0.0021204447691 -0.0021042224048 -0.002080813441 -0.002051097093 -0.0020159762653 -0.0019806456609 -0.0019541900941 -0.0019427900707 
-0.0019466619384 -0.001964365059 -0.0019948409506 -0.0020320982722 -0.0020623389725 -0.0020720905926 -0.0020600829563 -0.0020368631181 -0.0019946491114 
-0.0019911946131 -0.0019887522669 -0.001992493979 -0.0020150483448 -0.0020578806498 -0.002098638975 -0.0021048109726 -0.0020669602211 -0.0020143646228 
-0.0019909862095 -0.0020188366519 -0.0020812079768 -0.0021374489889 -0.0021589022348 -0.0021524542602 -0.0021443717803 -0.0021453811658 -0.0021397149406 
-0.0021087520767 -0.0020572100524 -0.0020105738055 -0.0019924331145 -0.0020057297826 -0.0020306760092 -0.0020406366417 -0.0020248319424 -0.0019985264824 
-0.0019905006351 -0.002017359859 -0.0020686404429 -0.0021173159844 -0.0021422710128 -0.0021395089516 -0.0021168042765 -0.0020856545031 -0.0020571620263 
-0.0020362799688 -0.0020189045562 -0.0019995652509 -0.0019791365028 -0.0019620568784 -0.0019521173243 -0.0019537896268 -0.0019707607394 -0.0019984379676 
-0.0020221062543 -0.0020282586685 -0.0020177377182 -0.002003231939 -0.0019765408042 -0.0019933028841 -0.0020046914041 -0.0020122232919 -0.0020317647485 
-0.0020719998715 -0.0021161820711 -0.0021318541128 -0.0021044175338 -0.0020577316067 -0.0020334940355 -0.0020534055179 -0.0021013648303 -0.0021386164005 
-0.0021409607426 -0.0021227717329 -0.0021169862773 -0.0021350756316 -0.0021534887698 -0.0021396976597 -0.0020890955116 -0.0020293626197 -0.001993906807 
-0.0019955148552 -0.0020179378193 -0.0020301771621 -0.002014052524 -0.0019812875871 -0.0019641918359 -0.0019873743851 -0.002045197157 -0.0021063986211 
-0.0021389442517 -0.0021306691851 -0.0020917678869 -0.0020445236793 -0.0020109576492 -0.0020009342781 -0.0020073480161 -0.0020158146777 -0.0020179591633 
-0.0020133613748 -0.0020053045406 -0.0019996431755 -0.0020015496829 -0.0020079162916 -0.0020073805472 -0.0019934075324 -0.0019747261333 -0.0019671498175 
-0.0019731834611 -0.0020016593322 -0.0020150580229 -0.0020139818332 -0.0020209146195 -0.0020538454273 -0.0021021167137 -0.0021323048286 -0.0021216641589 
-0.00208517861 -0.0020608707888 -0.0020702100715 -0.0020972132317 -0.002104121842 -0.002073106484 -0.0020306141194 -0.0020189012873 -0.0020510095094 
-0.0020965523815 -0.002108239469 -0.0020699316488 -0.0020119277712 -0.0019775128552 -0.0019861506609 -0.0020208829818 -0.0020442816177 -0.0020314060724 
-0.0019914019774 -0.0019599438285 -0.0019693766542 -0.0020204989738 -0.0020820473565 -0.0021159241735 -0.0021037656454 -0.0020564042892 -0.0020031048331 
-0.0019724006802 -0.0019759692328 -0.0020036043303 -0.0020351452078 -0.0020578983856 -0.0020707567591 -0.0020764405882 -0.0020766053826 -0.0020711175959 
-0.0020558072912 -0.0020254730125 -0.0019852953682 -0.001954355119 -0.001950619689 -0.0019872893252 -0.002017033462 -0.0020208953701 -0.0020019244608 
-0.0019906452606 -0.0020129319565 -0.0020618934345 -0.0021018780325 -0.0021017576177 -0.0020681954391 -0.0020381636379 -0.0020365156921 -0.0020488605914 
-0.0020361689383 -0.0019825068537 -0.0019219140661 -0.0019030373375 -0.0019403641164 -0.0019997691343 -0.0020262799958 -0.0019983914036 -0.0019509753189 
-0.0019348454858 -0.0019704730502 -0.0020345888212 -0.002081539569 -0.0020810694551 -0.0020402442233 -0.0019956889934 -0.0019844092942 -0.0020141845734 
-0.00205975772 -0.002085372988 -0.0020717107544 -0.002028299108 -0.001983984621 -0.0019661191648 -0.0019832712412 -0.0020207736155 -0.0020554633017 
-0.0020776570513 -0.0020948930833 -0.0021147516996 -0.0021318725982 -0.0021329591246 -0.0021075303932 -0.0020562696299 -0.0019970145064 -0.0019581775545 
-0.0019577675681 -0.0020103189169 -0.0020359288371 -0.0020277548499 -0.001993083418 -0.0019678812679 -0.0019813123382 -0.0020271101309 -0.002066922844 
-0.0020634433074 -0.0020190646999 -0.0019746113445 -0.0019631866734 -0.0019754458661 -0.0019699379719 -0.001923346778 -0.001865375953 -0.0018447609305 
-0.0018771568026 -0.0019290837168 -0.0019473896732 -0.0019160866826 -0.0018769571627 -0.0018835816467 -0.0019520620359 -0.0020501874525 -0.0021251660315 
-0.0021436266107 -0.0021101872713 -0.0020586484641 -0.0020265821904 -0.0020285116154 -0.002049621003 -0.002062517025 -0.0020506493008 -0.0020208469815 
-0.0019959437413 -0.001995975054 -0.0020219041767 -0.0020527015078 -0.0020644153724 -0.0020573821762 -0.0020565130547 -0.0020810053122 -0.0021203157439 
-0.0021432152574 -0.0021262685757 -0.0020723614028 -0.0020095271208 -0.0019724755718 -0.0019775771486 -0.0020335247563 -0.0020549569079 -0.0020411304489 
-0.0020027470022 -0.0019754576853 -0.0019861726195 -0.0020270309906 -0.0020582355333 -0.002040143545 -0.0019752296181 -0.0019105654707 -0.0018896055446 
-0.0019117929836 -0.0019362986049 -0.0019272001488 -0.0018965557985 -0.001883845375 -0.0019047142121 -0.001932438811 -0.0019253256513 -0.0018795252203 
-0.0018412494321 -0.0018612507939 -0.001948942571 -0.002065239762 -0.0021549506203 -0.0021857124092 -0.0021605403691 -0.0021079725015 -0.0020630200285 
-0.002045030201 -0.0020485171329 -0.0020537804508 -0.0020468421228 -0.0020320655162 -0.0020265623564 -0.0020423920338 -0.0020708709425 -0.0020826945309 
-0.0020541088541 -0.0019989033813 -0.0019624195623 -0.0019790206138 -0.0020379350451 -0.0020919694799 -0.0021007317669 -0.0020634705706 -0.0020131764236 
-0.0019870638729 -0.001999516648 -0.002053175737 -0.0020707486278 -0.0020589610792 -0.0020301414419 -0.0020137612136 -0.0020293325735 -0.0020658787188 
-0.0020847958792 -0.0020490822515 -0.0019638159515 -0.0018800128712 -0.0018488330317 -0.0018795899959 -0.0019372005702 -0.0019774171381 -0.0019889473929 
-0.0019926992166 -0.002002254081 -0.0020026922033 -0.0019704376252 -0.0019126042881 -0.001872402905 -0.0018925086941 -0.0019761048903 -0.0020821029657 
-0.0021592771564 -0.0021818341945 -0.0021547719288 -0.0021030721127 -0.0020581393047 -0.0020395221781 -0.0020439626831 -0.0020527644897 -0.0020516511599 
-0.0020454503021 -0.0020517890801 -0.0020793830745 -0.0021106788217 -0.0021062627307 -0.0020404679933 -0.0019380495306 -0.0018619583791 -0.0018617417106 
-0.0019309080142 -0.0020132437714 -0.0020539786614 -0.0020443133522 -0.0020156524707 -0.0020037676014 -0.0020214649419 -0.0020668619105 -0.0020778622709 
-0.002070912736 -0.0020587837973 -0.002061577021 -0.0020877972058 -0.0021221026413 -0.0021301247568 -0.0020826166338 -0.0019875229982 -0.0018938861338 
-0.0018539654411 -0.0018840926718 -0.0019577658842 -0.0020313156102 -0.0020780737927 -0.002099045467 -0.0021028203579 -0.0020871764108 -0.0020460227698 
-0.0019905563842 -0.001953525918 -0.0019657888988 -0.0020257336209 -0.0020959112107 -0.0021357662972 -0.002130386453 -0.0020897263182 -0.0020385210404 
-0.0020051640381 -0.0020047494197 -0.0020279423866 -0.0020490323204 -0.0020505524158 -0.0020427312283 -0.0020524668866 -0.0020916359788 -0.0021359177954 
-0.0021339691636 -0.0020532093863 -0.0019228085694 -0.0018171512566 -0.001797803953 -0.0018650684077 -0.0019614037611 -0.0020251826714 -0.0020399036511 
-0.0020306537366 -0.0020282683308 -0.0020440896679 -0.0020699369599 -0.0020712959805 -0.0020678528586 -0.0020714504581 -0.0020930049531 -0.0021298935723 
-0.0021626399563 -0.0021641656318 -0.0021168191413 -0.0020299509037 -0.0019429486767 -0.001900545933 -0.0019207678216 -0.0019859539864 -0.002060601237 
-0.0021164096116 -0.0021439697222 -0.0021470743879 -0.0021315643897 -0.0021013629381 -0.0020648088341 -0.0020401153163 -0.0020443375245 -0.0020724936071 
-0.0020965802371 -0.0020919301561 -0.0020548881275 -0.0019995730683 -0.00195108396 -0.001935129741 -0.0019603120446 -0.0020071246519 -0.0020389981479 
-0.0020347321499 -0.0020143944608 -0.0020204642696 -0.0020726122864 -0.0021422710059 -0.0021662470755 -0.0021006429677 -0.0019713097418 -0.0018563215915 
-0.0018229959962 -0.0018782626197 -0.0019700749382 -0.0020383803843 -0.0020628665797 -0.0020612307655 -0.0020577587493 -0.0020625036999 -0.0020583790236 
-0.0020524602527 -0.0020518956798 -0.0020654024906 -0.0020967935236 -0.0021361682518 -0.0021635581425 -0.0021621727747 -0.0021270181282 -0.0020669900633 
-0.0020054925173 -0.001971000263 -0.0019773527057 -0.0020152603873 -0.0020627931769 -0.0021006116114 -0.0021200248955 -0.0021234081316 -0.0021184982154 
-0.0021105017732 -0.0021013651652 -0.0020951812127 -0.0020957359771 -0.0020966877719 -0.0020832808487 -0.0020469542498 -0.0019920562049 -0.0019335985977 
-0.0018943136377 -0.0018955382113 -0.0019395089417 -0.0019986277713 -0.0020285769826 -0.0020070309755 -0.0019648780098 -0.0019600006132 -0.0020207653459 
-0.0021177442193 -0.0021802934905 -0.0021532734311 -0.0020526303163 -0.0019514257223 -0.0019156005845 -0.0019561479274 -0.0020301605231 -0.0020853300256 
-0.0021020592597 -0.0020929675958 -0.0020775248873 -0.002065988146 -0.0020347518926 -0.0020315037456 -0.0020367642942 -0.0020540801753 -0.0020827487368 
-0.0021115200118 -0.0021260552291 -0.0021219701239 -0.0021048367301 -0.0020814914208 -0.0020579140516 -0.0020414451798 -0.002036628276 -0.0020408527522 
-0.0020479877394 -0.0020535763259 -0.0020568297409 -0.0020609196429 -0.0020702150519 -0.002084994444 -0.0021004129593 -0.0021106347666 -0.002110780916 
-0.0020961430805 -0.0020646176818 -0.0020196471209 -0.0019692598858 -0.0019250590584 -0.0019026552811 -0.0019161221068 -0.0019633154502 -0.0020154686302 
-0.0020286634864 -0.0019829591288 -0.0019156552352 -0.0018932767294 -0.0019508901918 -0.0020618392888 -0.0021553708963 -0.0021707849918 -0.0021124173376 
-0.0020413361851 -0.0020157161257 -0.0020469565861 -0.0021004493707 -0.0021331522728 -0.0021295091677 -0.0021019268442 -0.0020700494823 -0.0020467195416 
-0.002008725827 -0.0020207472267 -0.002036730886 -0.0020540787875 -0.0020700473271 -0.0020775677742 -0.0020730501702 -0.0020642743032 -0.0020632953681 
-0.0020735504813 -0.0020870300787 -0.0020925054714 -0.0020834550841 -0.0020603218416 -0.0020303527565 -0.0020046613633 -0.0019928211764 -0.0019990548582 
-0.0020214151987 -0.0020527232141 -0.0020825278288 -0.0021000783911 -0.002098175447 -0.0020770694663 -0.0020448416054 -0.002011941542 -0.0019856038287 
-0.0019695440175 -0.0019680183203 -0.0019865211811 -0.0020224579103 -0.0020541195998 -0.0020460913444 -0.0019817219842 -0.0018961502367 -0.0018551093068 
-0.0018972423071 -0.0020014075967 -0.0021029288112 -0.0021436116717 -0.0021204441772 -0.0020809657083 -0.0020720780265 -0.0021017999415 -0.002139746277 
-0.0021496756648 -0.0021219407192 -0.0020742477252 -0.0020313179615 -0.0020091099224 -0.0019913961576 -0.0020248122002 -0.0020528668623 -0.0020678345157 
-0.0020674935715 -0.0020521555893 -0.002029620371 -0.0020160944977 -0.0020253670365 -0.0020567681394 -0.0020942274774 -0.0021166683516 -0.0021101840811 
-0.0020744705179 -0.0020230749199 -0.0019774183075 -0.001955652691 -0.0019634981059 -0.0019937333599 -0.0020325081916 -0.0020651695175 -0.0020795705713 
-0.0020708719941 -0.0020462837747 -0.0020215896127 -0.0020101031327 -0.0020147878122 -0.0020291553892 -0.0020454308722 -0.002062298783 -0.0020808833286 
-0.0020918795016 -0.0020722957495 -0.0020067890435 -0.0019197138602 -0.0018676160305 -0.0018891405206 -0.0019700955233 -0.002055912068 -0.0020971830195 
-0.0020898964726 -0.0020708560042 -0.0020758622085 -0.0021074516239 -0.0021356515596 -0.0021281330846 -0.0020816894733 -0.0020216975502 -0.0019787373256 
-0.001969900383 -0.0019904403759 -0.0020377406522 -0.002069794732 -0.002078002965 -0.0020638283355 -0.002034745675 -0.0020049456858 -0.0019921743278 
-0.0020072087821 -0.0020453461523 -0.0020888767602 -0.0021173922514 -0.0021166375157 -0.0020834414751 -0.0020290321 -0.001976644879 -0.0019492077531 
-0.0019554369448 -0.0019867767057 -0.0020254789793 -0.0020537663939 -0.0020594581504 -0.0020416771514 -0.0020139663244 -0.0019967258617 -0.0020029140643 
-0.0020299184126 -0.0020628569064 -0.0020861760559 -0.002095637974 -0.0020980705495 -0.0020971388772 -0.0020817259263 -0.002035828567 -0.0019681293178 
-0.00191967053 -0.001925395165 -0.0019779628565 -0.0020356029422 -0.0020611475432 -0.0020533965155 -0.0020417153681 -0.0020528182171 -0.0020842917588 
-0.0021061355576 -0.0020893243904 -0.0020356357613 -0.0019753635052 -0.0019417267084 -0.0019499925306 -0.0020064217256 -0.0020480545616 -0.0020680177529 
-0.0020634337876 -0.0020416778337 -0.0020136888974 -0.0019924014085 -0.0019898690312 -0.0020099469245 -0.0020445611418 -0.0020797249245 -0.0021035999616 
-0.0021073589972 -0.0020848370112 -0.0020394248886 -0.0019892967222 -0.0019582918222 -0.0019591057884 -0.0019859751179 -0.0020210056202 -0.0020447362012 
-0.0020446888505 -0.0020222838808 -0.0019940887528 -0.0019814685959 -0.0019948474154 -0.0020268549471 -0.002058803696 -0.0020738921951 -0.0020692987801 
-0.0020578004558 -0.002053314693 -0.0020531286698 -0.0020397869708 -0.0020069963304 -0.00197716626 -0.0019778009615 -0.0020076121112 -0.0020388290664 
-0.0020470010568 -0.002033753906 -0.0020222685123 -0.0020323030676 -0.0020594085213 -0.0020768072422 -0.0020600908564 -0.0020125621885 -0.0019632891581 
-0.0019429879553 -0.0019623270916 -0.0020299876983 -0.0020474813827 -0.0020437509226 -0.0020251443256 -0.0020034407634 -0.0019882264602 -0.0019860505905 
-0.0019996606259 -0.0020247205058 -0.0020511548652 -0.0020715376626 -0.0020849093598 -0.0020895581815 -0.0020777718976 -0.0020446193048 -0.0020003397252 
-0.0019668644609 -0.001960429758 -0.001980256645 -0.0020115316735 -0.002035188818 -0.0020379097663 -0.0020201811391 -0.0019971793351 -0.0019878069197 
-0.00199909732 -0.0020212169316 -0.0020362517677 -0.002031009313 -0.0020072184736 -0.0019833588148 -0.0019798594901 -0.001997827368 -0.0020173551075 
-0.0020209680078 -0.0020146860743 -0.0020171183086 -0.0020324921762 -0.0020468811554 -0.0020464062424 -0.002032544408 -0.0020208729133 -0.0020255267314 
-0.0020442929308 -0.002058653245 -0.0020503892674 -0.0020203373348 -0.0019896486652 -0.0019814185428 -0.0020004982562 -0.0020476744345 -0.0020394154199 
-0.0020169576867 -0.0019921819648 -0.0019768860212 -0.0019764519988 -0.0019907517604 -0.0020153437168 -0.0020409954512 -0.0020580876297 -0.0020650871288 
-0.0020682440241 -0.0020703930922 -0.0020639630109 -0.0020394996902 -0.0020011213864 -0.0019678307532 -0.0019573516147 -0.0019728130352 -0.0020031796028 