# vtk DataFile Version 4.2
vtk output
ASCII
DATASET UNSTRUCTURED_GRID
POINTS 2601 double
0 0 0 1 0 0 2 0 0 
3 0 0 4 0 0 5 0 0 
6 0 0 7 0 0 8 0 0 
9 0 0 10 0 0 11 0 0 
12 0 0 13 0 0 14 0 0 
15 0 0 16 0 0 17 0 0 
18 0 0 19 0 0 20 0 0 
21 0 0 22 0 0 23 0 0 
24 0 0 25 0 0 26 0 0 
27 0 0 28 0 0 29 0 0 
30 0 0 31 0 0 32 0 0 
33 0 0 34 0 0 35 0 0 
36 0 0 37 0 0 38 0 0 
39 0 0 40 0 0 41 0 0 
42 0 0 43 0 0 44 0 0 
45 0 0 46 0 0 47 0 0 
48 0 0 49 0 0 50 0 0 
0 1 0 1 1 0 2 1 0 
3 1 0 4 1 0 5 1 0 
6 1 0 7 1 0 8 1 0 
9 1 0 10 1 0 11 1 0 
12 1 0 13 1 0 14 1 0 
15 1 0 16 1 0 17 1 0 
18 1 0 19 1 0 20 1 0 
21 1 0 22 1 0 23 1 0 
24 1 0 25 1 0 26 1 0 
27 1 0 28 1 0 29 1 0 
30 1 0 31 1 0 32 1 0 
33 1 0 34 1 0 35 1 0 
36 1 0 37 1 0 38 1 0 
39 1 0 40 1 0 41 1 0 
42 1 0 43 1 0 44 1 0 
45 1 0 46 1 0 47 1 0 
48 1 0 49 1 0 50 1 0 
0 2 0 1 2 0 2 2 0 
3 2 0 4 2 0 5 2 0 
6 2 0 7 2 0 8 2 0 
9 2 0 10 2 0 11 2 0 
12 2 0 13 2 0 14 2 0 
15 2 0 16 2 0 17 2 0 
18 2 0 19 2 0 20 2 0 
21 2 0 22 2 0 23 2 0 
24 2 0 25 2 0 26 2 0 
27 2 0 28 2 0 29 2 0 
30 2 0 31 2 0 32 2 0 
33 2 0 34 2 0 35 2 0 
36 2 0 37 2 0 38 2 0 
39 2 0 40 2 0 41 2 0 
42 2 0 43 2 0 44 2 0 
45 2 0 46 2 0 47 2 0 
48 2 0 49 2 0 50 2 0 
0 3 0 1 3 0 2 3 0 
3 3 0 4 3 0 5 3 0 
6 3 0 7 3 0 8 3 0 
9 3 0 10 3 0 11 3 0 
12 3 0 13 3 0 14 3 0 
15 3 0 16 3 0 17 3 0 
18 3 0 19 3 0 20 3 0 
21 3 0 22 3 0 23 3 0 
24 3 0 25 3 0 26 3 0 
27 3 0 28 3 0 29 3 0 
30 3 0 31 3 0 32 3 0 
33 3 0 34 3 0 35 3 0 
36 3 0 37 3 0 38 3 0 
39 3 0 40 3 0 41 3 0 
42 3 0 43 3 0 44 3 0 
45 3 0 46 3 0 47 3 0 
48 3 0 49 3 0 50 3 0 
0 4 0 1 4 0 2 4 0 
3 4 0 4 4 0 5 4 0 
6 4 0 7 4 0 8 4 0 
9 4 0 10 4 0 11 4 0 
12 4 0 13 4 0 14 4 0 
15 4 0 16 4 0 17 4 0 
18 4 0 19 4 0 20 4 0 
21 4 0 22 4 0 23 4 0 
24 4 0 25 4 0 26 4 0 
27 4 0 28 4 0 29 4 0 
30 4 0 31 4 0 32 4 0 
33 4 0 34 4 0 35 4 0 
36 4 0 37 4 0 38 4 0 
39 4 0 40 4 0 41 4 0 
42 4 0 43 4 0 44 4 0 
45 4 0 46 4 0 47 4 0 
48 4 0 49 4 0 50 4 0 
0 5 0 1 5 0 2 5 0 
3 5 0 4 5 0 5 5 0 
6 5 0 7 5 0 8 5 0 
9 5 0 10 5 0 11 5 0 
12 5 0 13 5 0 14 5 0 
15 5 0 16 5 0 17 5 0 
18 5 0 19 5 0 20 5 0 
21 5 0 22 5 0 23 5 0 
24 5 0 25 5 0 26 5 0 
27 5 0 28 5 0 29 5 0 
30 5 0 31 5 0 32 5 0 
33 5 0 34 5 0 35 5 0 
36 5 0 37 5 0 38 5 0 
39 5 0 40 5 0 41 5 0 
42 5 0 43 5 0 44 5 0 
45 5 0 46 5 0 47 5 0 
48 5 0 49 5 0 50 5 0 
0 6 0 1 6 0 2 6 0 
3 6 0 4 6 0 5 6 0 
6 6 0 7 6 0 8 6 0 
9 6 0 10 6 0 11 6 0 
12 6 0 13 6 0 14 6 0 
15 6 0 16 6 0 17 6 0 
18 6 0 19 6 0 20 6 0 
21 6 0 22 6 0 23 6 0 
24 6 0 25 6 0 26 6 0 
27 6 0 28 6 0 29 6 0 
30 6 0 31 6 0 32 6 0 
33 6 0 34 6 0 35 6 0 
36 6 0 37 6 0 38 6 0 
39 6 0 40 6 0 41 6 0 
42 6 0 43 6 0 44 6 0 
45 6 0 46 6 0 47 6 0 
48 6 0 49 6 0 50 6 0 
0 7 0 1 7 0 2 7 0 
3 7 0 4 7 0 5 7 0 
6 7 0 7 7 0 8 7 0 
9 7 0 10 7 0 11 7 0 
12 7 0 13 7 0 14 7 0 
15 7 0 16 7 0 17 7 0 
18 7 0 19 7 0 20 7 0 
21 7 0 22 7 0 23 7 0 
24 7 0 25 7 0 26 7 0 
27 7 0 28 7 0 29 7 0 
30 7 0 31 7 0 32 7 0 
33 7 0 34 7 0 35 7 0 
36 7 0 37 7 0 38 7 0 
39 7 0 40 7 0 41 7 0 
42 7 0 43 7 0 44 7 0 
45 7 0 46 7 0 47 7 0 
48 7 0 49 7 0 50 7 0 
0 8 0 1 8 0 2 8 0 
3 8 0 4 8 0 5 8 0 
6 8 0 7 8 0 8 8 0 
9 8 0 10 8 0 11 8 0 
12 8 0 13 8 0 14 8 0 
15 8 0 16 8 0 17 8 0 
18 8 0 19 8 0 20 8 0 
21 8 0 22 8 0 23 8 0 
24 8 0 25 8 0 26 8 0 
27 8 0 28 8 0 29 8 0 
30 8 0 31 8 0 32 8 0 
33 8 0 34 8 0 35 8 0 
36 8 0 37 8 0 38 8 0 
39 8 0 40 8 0 41 8 0 
42 8 0 43 8 0 44 8 0 
45 8 0 46 8 0 47 8 0 
48 8 0 49 8 0 50 8 0 
0 9 0 1 9 0 2 9 0 
3 9 0 4 9 0 5 9 0 
6 9 0 7 9 0 8 9 0 
9 9 0 10 9 0 11 9 0 
12 9 0 13 9 0 14 9 0 
15 9 0 16 9 0 17 9 0 
18 9 0 19 9 0 20 9 0 
21 9 0 22 9 0 23 9 0 
24 9 0 25 9 0 26 9 0 
27 9 0 28 9 0 29 9 0 
30 9 0 31 9 0 32 9 0 
33 9 0 34 9 0 35 9 0 
36 9 0 37 9 0 38 9 0 
39 9 0 40 9 0 41 9 0 
42 9 0 43 9 0 44 9 0 
45 9 0 46 9 0 47 9 0 
48 9 0 49 9 0 50 9 0 
0 10 0 1 10 0 2 10 0 
3 10 0 4 10 0 5 10 0 
6 10 0 7 10 0 8 10 0 
9 10 0 10 10 0 11 10 0 
12 10 0 13 10 0 14 10 0 
15 10 0 16 10 0 17 10 0 
18 10 0 19 10 0 20 10 0 
21 10 0 22 10 0 23 10 0 
24 10 0 25 10 0 26 10 0 
27 10 0 28 10 0 29 10 0 
30 10 0 31 10 0 32 10 0 
33 10 0 34 10 0 35 10 0 
36 10 0 37 10 0 38 10 0 
39 10 0 40 10 0 41 10 0 
42 10 0 43 10 0 44 10 0 
45 10 0 46 10 0 47 10 0 
48 10 0 49 10 0 50 10 0 
0 11 0 1 11 0 2 11 0 
3 11 0 4 11 0 5 11 0 
6 11 0 7 11 0 8 11 0 
9 11 0 10 11 0 11 11 0 
12 11 0 13 11 0 14 11 0 
15 11 0 16 11 0 17 11 0 
18 11 0 19 11 0 20 11 0 
21 11 0 22 11 0 23 11 0 
24 11 0 25 11 0 26 11 0 
27 11 0 28 11 0 29 11 0 
30 11 0 31 11 0 32 11 0 
33 11 0 34 11 0 35 11 0 
36 11 0 37 11 0 38 11 0 
39 11 0 40 11 0 41 11 0 
42 11 0 43 11 0 44 11 0 
45 11 0 46 11 0 47 11 0 
48 11 0 49 11 0 50 11 0 
0 12 0 1 12 0 2 12 0 
3 12 0 4 12 0 5 12 0 
6 12 0 7 12 0 8 12 0 
9 12 0 10 12 0 11 12 0 
12 12 0 13 12 0 14 12 0 
15 12 0 16 12 0 17 12 0 
18 12 0 19 12 0 20 12 0 
21 12 0 22 12 0 23 12 0 
24 12 0 25 12 0 26 12 0 
27 12 0 28 12 0 29 12 0 
30 12 0 31 12 0 32 12 0 
33 12 0 34 12 0 35 12 0 
36 12 0 37 12 0 38 12 0 
39 12 0 40 12 0 41 12 0 
42 12 0 43 12 0 44 12 0 
45 12 0 46 12 0 47 12 0 
48 12 0 49 12 0 50 12 0 
0 13 0 1 13 0 2 13 0 
3 13 0 4 13 0 5 13 0 
6 13 0 7 13 0 8 13 0 
9 13 0 10 13 0 11 13 0 
12 13 0 13 13 0 14 13 0 
15 13 0 16 13 0 17 13 0 
18 13 0 19 13 0 20 13 0 
21 13 0 22 13 0 23 13 0 
24 13 0 25 13 0 26 13 0 
27 13 0 28 13 0 29 13 0 
30 13 0 31 13 0 32 13 0 
33 13 0 34 13 0 35 13 0 
36 13 0 37 13 0 38 13 0 
39 13 0 40 13 0 41 13 0 
42 13 0 43 13 0 44 13 0 
45 13 0 46 13 0 47 13 0 
48 13 0 49 13 0 50 13 0 
0 14 0 1 14 0 2 14 0 
3 14 0 4 14 0 5 14 0 
6 14 0 7 14 0 8 14 0 
9 14 0 10 14 0 11 14 0 
12 14 0 13 14 0 14 14 0 
15 14 0 16 14 0 17 14 0 
18 14 0 19 14 0 20 14 0 
21 14 0 22 14 0 23 14 0 
24 14 0 25 14 0 26 14 0 
27 14 0 28 14 0 29 14 0 
30 14 0 31 14 0 32 14 0 
33 14 0 34 14 0 35 14 0 
36 14 0 37 14 0 38 14 0 
39 14 0 40 14 0 41 14 0 
42 14 0 43 14 0 44 14 0 
45 14 0 46 14 0 47 14 0 
48 14 0 49 14 0 50 14 0 
0 15 0 1 15 0 2 15 0 
3 15 0 4 15 0 5 15 0 
6 15 0 7 15 0 8 15 0 
9 15 0 10 15 0 11 15 0 
12 15 0 13 15 0 14 15 0 
15 15 0 16 15 0 17 15 0 
18 15 0 19 15 0 20 15 0 
21 15 0 22 15 0 23 15 0 
24 15 0 25 15 0 26 15 0 
27 15 0 28 15 0 29 15 0 
30 15 0 31 15 0 32 15 0 
33 15 0 34 15 0 35 15 0 
36 15 0 37 15 0 38 15 0 
39 15 0 40 15 0 41 15 0 
42 15 0 43 15 0 44 15 0 
45 15 0 46 15 0 47 15 0 
48 15 0 49 15 0 50 15 0 
0 16 0 1 16 0 2 16 0 
3 16 0 4 16 0 5 16 0 
6 16 0 7 16 0 8 16 0 
9 16 0 10 16 0 11 16 0 
12 16 0 13 16 0 14 16 0 
15 16 0 16 16 0 17 16 0 
18 16 0 19 16 0 20 16 0 
21 16 0 22 16 0 23 16 0 
24 16 0 25 16 0 26 16 0 
27 16 0 28 16 0 29 16 0 
30 16 0 31 16 0 32 16 0 
33 16 0 34 16 0 35 16 0 
36 16 0 37 16 0 38 16 0 
39 16 0 40 16 0 41 16 0 
42 16 0 43 16 0 44 16 0 
45 16 0 46 16 0 47 16 0 
48 16 0 49 16 0 50 16 0 
0 17 0 1 17 0 2 17 0 
3 17 0 4 17 0 5 17 0 
6 17 0 7 17 0 8 17 0 
9 17 0 10 17 0 11 17 0 
12 17 0 13 17 0 14 17 0 
15 17 0 16 17 0 17 17 0 
18 17 0 19 17 0 20 17 0 
21 17 0 22 17 0 23 17 0 
24 17 0 25 17 0 26 17 0 
27 17 0 28 17 0 29 17 0 
30 17 0 31 17 0 32 17 0 
33 17 0 34 17 0 35 17 0 
36 17 0 37 17 0 38 17 0 
39 17 0 40 17 0 41 17 0 
42 17 0 43 17 0 44 17 0 
45 17 0 46 17 0 47 17 0 
48 17 0 49 17 0 50 17 0 
0 18 0 1 18 0 2 18 0 
3 18 0 4 18 0 5 18 0 
6 18 0 7 18 0 8 18 0 
9 18 0 10 18 0 11 18 0 
12 18 0 13 18 0 14 18 0 
15 18 0 16 18 0 17 18 0 
18 18 0 19 18 0 20 18 0 
21 18 0 22 18 0 23 18 0 
24 18 0 25 18 0 26 18 0 
27 18 0 28 18 0 29 18 0 
30 18 0 31 18 0 32 18 0 
33 18 0 34 18 0 35 18 0 
36 18 0 37 18 0 38 18 0 
39 18 0 40 18 0 41 18 0 
42 18 0 43 18 0 44 18 0 
45 18 0 46 18 0 47 18 0 
48 18 0 49 18 0 50 18 0 
0 19 0 1 19 0 2 19 0 
3 19 0 4 19 0 5 19 0 
6 19 0 7 19 0 8 19 0 
9 19 0 10 19 0 11 19 0 
12 19 0 13 19 0 14 19 0 
15 19 0 16 19 0 17 19 0 
18 19 0 19 19 0 20 19 0 
21 19 0 22 19 0 23 19 0 
24 19 0 25 19 0 26 19 0 
27 19 0 28 19 0 29 19 0 
30 19 0 31 19 0 32 19 0 
33 19 0 34 19 0 35 19 0 
36 19 0 37 19 0 38 19 0 
39 19 0 40 19 0 41 19 0 
42 19 0 43 19 0 44 19 0 
45 19 0 46 19 0 47 19 0 
48 19 0 49 19 0 50 19 0 
0 20 0 1 20 0 2 20 0 
3 20 0 4 20 0 5 20 0 
6 20 0 7 20 0 8 20 0 
9 20 0 10 20 0 11 20 0 
12 20 0 13 20 0 14 20 0 
15 20 0 16 20 0 17 20 0 
18 20 0 19 20 0 20 20 0 
21 20 0 22 20 0 23 20 0 
24 20 0 25 20 0 26 20 0 
27 20 0 28 20 0 29 20 0 
30 20 0 31 20 0 32 20 0 
33 20 0 34 20 0 35 20 0 
36 20 0 37 20 0 38 20 0 
39 20 0 40 20 0 41 20 0 
42 20 0 43 20 0 44 20 0 
45 20 0 46 20 0 47 20 0 
48 20 0 49 20 0 50 20 0 
0 21 0 1 21 0 2 21 0 
3 21 0 4 21 0 5 21 0 
6 21 0 7 21 0 8 21 0 
9 21 0 10 21 0 11 21 0 
12 21 0 13 21 0 14 21 0 
15 21 0 16 21 0 17 21 0 
18 21 0 19 21 0 20 21 0 
21 21 0 22 21 0 23 21 0 
24 21 0 25 21 0 26 21 0 
27 21 0 28 21 0 29 21 0 
30 21 0 31 21 0 32 21 0 
33 21 0 34 21 0 35 21 0 
36 21 0 37 21 0 38 21 0 
39 21 0 40 21 0 41 21 0 
42 21 0 43 21 0 44 21 0 
45 21 0 46 21 0 47 21 0 
48 21 0 49 21 0 50 21 0 
0 22 0 1 22 0 2 22 0 
3 22 0 4 22 0 5 22 0 
6 22 0 7 22 0 8 22 0 
9 22 0 10 22 0 11 22 0 
12 22 0 13 22 0 14 22 0 
15 22 0 16 22 0 17 22 0 
18 22 0 19 22 0 20 22 0 
21 22 0 22 22 0 23 22 0 
24 22 0 25 22 0 26 22 0 
27 22 0 28 22 0 29 22 0 
30 22 0 31 22 0 32 22 0 
33 22 0 34 22 0 35 22 0 
36 22 0 37 22 0 38 22 0 
39 22 0 40 22 0 41 22 0 
42 22 0 43 22 0 44 22 0 
45 22 0 46 22 0 47 22 0 
48 22 0 49 22 0 50 22 0 
0 23 0 1 23 0 2 23 0 
3 23 0 4 23 0 5 23 0 
6 23 0 7 23 0 8 23 0 
9 23 0 10 23 0 11 23 0 
12 23 0 13 23 0 14 23 0 
15 23 0 16 23 0 17 23 0 
18 23 0 19 23 0 20 23 0 
21 23 0 22 23 0 23 23 0 
24 23 0 25 23 0 26 23 0 
27 23 0 28 23 0 29 23 0 
30 23 0 31 23 0 32 23 0 
33 23 0 34 23 0 35 23 0 
36 23 0 37 23 0 38 23 0 
39 23 0 40 23 0 41 23 0 
42 23 0 43 23 0 44 23 0 
45 23 0 46 23 0 47 23 0 
48 23 0 49 23 0 50 23 0 
0 24 0 1 24 0 2 24 0 
3 24 0 4 24 0 5 24 0 
6 24 0 7 24 0 8 24 0 
9 24 0 10 24 0 11 24 0 
12 24 0 13 24 0 14 24 0 
15 24 0 16 24 0 17 24 0 
18 24 0 19 24 0 20 24 0 
21 24 0 22 24 0 23 24 0 
24 24 0 25 24 0 26 24 0 
27 24 0 28 24 0 29 24 0 
30 24 0 31 24 0 32 24 0 
33 24 0 34 24 0 35 24 0 
36 24 0 37 24 0 38 24 0 
39 24 0 40 24 0 41 24 0 
42 24 0 43 24 0 44 24 0 
45 24 0 46 24 0 47 24 0 
48 24 0 49 24 0 50 24 0 
0 25 0 1 25 0 2 25 0 
3 25 0 4 25 0 5 25 0 
[...]
CELL_DATA 2500
SCALARS $\mu_{AB} double
LOOKUP_TABLE default
-0.002178575638 -0.00216660511 -0.0020993741476 -0.0020114770703 -0.0019580815369 -0.0019645581056 -0.0020069908333 -0.0020392586563 -0.0020416385537 
-0.0020363589344 -0.0020531007823 -0.0020921830293 -0.0021164781694 -0.0020775021423 -0.0019671878516 -0.0018418908192 -0.0017826683481 -0.0018286755218 
-0.0019423301882 -0.0020406779581 -0.0020654066475 -0.002022677948 -0.0019646220907 -0.0019471163623 -0.001989945523 -0.0020620208601 -0.0021099002785 
-0.0021072727612 -0.0020723918303 -0.0020395758683 -0.0020273299335 -0.0020328006705 -0.0020425121648 -0.0020420146689 -0.0020212824611 -0.0019817236857 
-0.0019422573201 -0.0019328153062 -0.0019728858007 -0.0020523014685 -0.0021330939334 -0.0021739279783 -0.0021610190578 -0.002114300766 -0.0020653495595 
-0.0020369448986 -0.002036214666 -0.0020591476531 -0.0020989990284 -0.0021459625189 -0.0021505275578 -0.0021541863186 -0.0021067456896 -0.0020339768631 
-0.0019843568263 -0.0019826158922 -0.00200967855 -0.0020273609385 -0.0020226053931 -0.0020189800061 -0.0020436263227 -0.0020939504835 -0.0021314782253 
-0.0021081153335 -0.0020149591693 -0.0019025153705 -0.0018436071517 -0.0018748493712 -0.0019668861086 -0.0020531305905 -0.0020887697789 -0.0020766651704 
-0.0020503010924 -0.0020449560856 -0.0020693695448 -0.0020964621323 -0.0020913815416 -0.0020505929238 -0.0020052057809 -0.0019883887863 -0.0020079214382 
-0.0020467215244 -0.0020790057687 -0.0020831615329 -0.0020476092128 -0.0019765427721 -0.0018963746407 -0.0018496394605 -0.0018692157275 -0.0019528351454 
-0.0020618780987 -0.0021439325416 -0.0021665620987 -0.002137731657 -0.0020889432869 -0.0020481508377 -0.002029272804 -0.0020354461095 -0.002065198113 
-0.0021106553372 -0.0020900306215 -0.0020957695266 -0.0020646230289 -0.0020164187686 -0.0019896014575 -0.0020016110516 -0.0020323678982 -0.0020477772657 
-0.0020396415268 -0.0020340486906 -0.0020590058041 -0.002112619374 -0.0021574043149 -0.0021462279696 -0.0020678385752 -0.0019643502625 -0.0018987619182 
-0.0019052074788 -0.0019648716418 -0.0020309597812 -0.0020728571488 -0.0020903156464 -0.0020989089913 -0.0021116690648 -0.0021244468965 -0.002115599689 
-0.0020695392139 -0.002001039583 -0.0019485981738 -0.001942157875 -0.0019803220186 -0.0020364974464 -0.0020799190121 -0.0020893937933 -0.0020544122732 
-0.0019764345079 -0.001878789567 -0.0018068812504 -0.0018020389606 -0.0018715175209 -0.0019841022677 -0.002090032774 -0.0021487149319 -0.0021521994667 
-0.0021214920634 -0.002081671857 -0.0020487260665 -0.0020316806995 -0.0020364537443 -0.0020613991182 -0.0020394064158 -0.0020308770228 -0.0020025519853 
-0.0019732904543 -0.001972845457 -0.0020085261887 -0.0020543003498 -0.0020746542136 -0.0020625821797 -0.0020478917272 -0.0020643083023 -0.0021151284568 
-0.0021652479858 -0.0021667481334 -0.0021035714081 -0.0020087855123 -0.0019361373048 -0.0019171207135 -0.001941906336 -0.0019807532331 -0.0020166123841 
-0.0020512642608 -0.002089849744 -0.0021271650962 -0.0021453067427 -0.0021242565387 -0.0020613277583 -0.0019827387773 -0.0019301768213 -0.0019295173446 
-0.0019727014303 -0.0020295614627 -0.002072411625 -0.002087151601 -0.0020665419577 -0.0020065604623 -0.0019186996202 -0.0018394443202 -0.001810570415 
-0.001848107306 -0.0019343718045 -0.002032435454 -0.0021070786973 -0.0021419335055 -0.0021425330476 -0.0021221655962 -0.0020915320666 -0.0020605544458 
-0.0020403767497 -0.0020363038324 -0.0020176358662 -0.0019874789024 -0.0019519516232 -0.0019313623932 -0.0019493121219 -0.0020042175994 -0.002062653067 
-0.0020841285058 -0.0020602916322 -0.0020265236027 -0.0020273518568 -0.0020753640674 -0.0021379841119 -0.002162568053 -0.0021244082394 -0.0020474554429 
-0.0019775831244 -0.0019427835607 -0.0019378993447 -0.001944719196 -0.0019585714801 -0.0019890936263 -0.0020409633183 -0.0020994941439 -0.0021350764727 
-0.0021236133773 -0.002066685793 -0.0019955029453 -0.0019518825781 -0.0019573338555 -0.0019994054348 -0.0020485130301 -0.0020839785845 -0.002100663259 
-0.0020961790716 -0.002063839048 -0.0020026348669 -0.0019315212676 -0.0018833196786 -0.0018792289233 -0.0019170034108 -0.0019777700972 -0.0020396893472 
-0.0020888162859 -0.0021208094074 -0.0021343519647 -0.0021274601721 -0.002102671318 -0.0020707533151 -0.0020424584383 -0.002015612456 -0.0019728761895 
-0.0019330816512 -0.0019168882851 -0.0019439749393 -0.0020074998879 -0.0020686648036 -0.0020820283828 -0.0020382413294 -0.0019797550409 -0.0019633368843 
-0.0020113399452 -0.0020930820903 -0.0021498649051 -0.0021469593923 -0.0020994252525 -0.0020462209557 -0.0020106056733 -0.0019874883211 -0.001964284711 
-0.0019454137641 -0.0019503301888 -0.0019909071164 -0.0020535326323 -0.0021032061588 -0.00210886532 -0.0020688962696 -0.0020142402023 -0.0019855024142 
-0.0020010588819 -0.0020456675224 -0.0020902361522 -0.0021186382865 -0.0021319673443 -0.0021331705004 -0.0021181348468 -0.0020812860585 -0.002026188281 
-0.0019695053653 -0.0019301650224 -0.0019171996892 -0.0019288435415 -0.0019586581288 -0.0020009902875 -0.0020500431837 -0.0020952843185 -0.0021216490634 
-0.0021191753583 -0.0020926193537 -0.0020554979239 -0.0020105625411 -0.0019767239578 -0.001946726025 -0.0019383878757 -0.0019696322594 -0.0020334916929 
-0.0020905922362 -0.0020935730157 -0.0020329108804 -0.0019555388862 -0.0019259439977 -0.0019731037199 -0.0020683473205 -0.0021503062419 -0.0021780476223 
-0.0021604830046 -0.002131696404 -0.0021097309327 -0.0020849363547 -0.0020434007046 -0.0019928335735 -0.0019604900447 -0.0019691339821 -0.0020144922721 
-0.0020635190755 -0.0020789967475 -0.0020517339588 -0.0020094070074 -0.0019929265076 -0.0020214366898 -0.002078344591 -0.0021307465042 -0.0021590652346 
-0.0021647649462 -0.0021558222504 -0.0021360947799 -0.002106525417 -0.0020674396289 -0.0020203128681 -0.0019712429097 -0.0019296949275 -0.0019040618865 
-0.0019005202014 -0.0019230187545 -0.001969424284 -0.0020264785882 -0.0020718614994 -0.0020872759183 -0.0020728432177 -0.0020433655969 -0.0019906936255 
-0.0019844615991 -0.0019766273439 -0.0019793817563 -0.0020115666985 -0.0020719427666 -0.0021264265279 -0.0021288928068 -0.0020674218328 -0.001986678306 
-0.0019515374833 -0.0019930616014 -0.0020850241956 -0.0021677459294 -0.002200702434 -0.0021942219453 -0.0021844111197 -0.0021863291393 -0.0021802113417 
-0.0021407817195 -0.0020714856046 -0.0020049321298 -0.0019762918151 -0.0019943953599 -0.0020317640744 -0.0020462489534 -0.0020197794677 -0.0019763686493 
-0.0019604978453 -0.0019974874193 -0.0020722351992 -0.0021442764852 -0.0021814025001 -0.0021778137995 -0.0021459349738 -0.0021034091063 -0.0020666725209 
-0.0020425153114 -0.0020232883956 -0.0019975411603 -0.0019634018673 -0.0019291304248 -0.0019073375577 -0.0019093286601 -0.0019378304482 -0.0019808943722 
-0.0020157233642 -0.0020253571946 -0.0020138965464 -0.0019990424967 -0.0019666725671 -0.0019910476126 -0.0020034320398 -0.0020102966294 -0.0020355658995 
-0.0020894978905 -0.0021476022432 -0.0021651770959 -0.0021225931106 -0.0020547573312 -0.0020211777587 -0.0020517201697 -0.0021219223033 -0.0021751295441 
-0.0021768494758 -0.0021497528085 -0.002142550616 -0.0021721360177 -0.0022048134719 -0.002191964453 -0.0021238328676 -0.0020385230037 -0.001985875292 
-0.0019873564699 -0.0020190654604 -0.0020327012291 -0.0020014276644 -0.0019464448866 -0.0019177601707 -0.001950288963 -0.0020342592254 -0.0021237834788 
-0.0021716967326 -0.0021596453082 -0.0021029716058 -0.0020358476067 -0.0019918295833 -0.0019849839196 -0.0020025643899 -0.0020194063276 -0.0020199195692 
-0.0020055320923 -0.0019880818453 -0.001980250693 -0.0019864414296 -0.0019971847381 -0.0019952365914 -0.0019744682393 -0.0019510929625 -0.0019473593717 
-0.0019581369998 -0.0020011404919 -0.0020174931209 -0.0020113041894 -0.0020170145422 -0.0020599268684 -0.0021251438468 -0.0021667035902 -0.002152627712 
-0.002103506681 -0.0020720392653 -0.00208755654 -0.0021267146602 -0.0021339640182 -0.0020832086708 -0.0020163736039 -0.0019982186993 -0.0020490758795 
-0.0021244001365 -0.0021503420802 -0.0020983209287 -0.0020136054055 -0.0019628442136 -0.001975943317 -0.0020257520986 -0.0020541452265 -0.0020259566534 
-0.0019603239274 -0.0019120064861 -0.0019252338319 -0.0019984533758 -0.0020870294691 -0.0021363434853 -0.0021181560265 -0.0020479255307 -0.0019706896548 
-0.0019301725649 -0.0019432423631 -0.0019929262952 -0.0020461334461 -0.0020805255376 -0.0020948635745 -0.0020984515252 -0.0020975619868 -0.0020903051296 
-0.0020672250797 -0.0020203322196 -0.0019601391515 -0.0019177799744 -0.0019190437009 -0.0019732005991 -0.0020188845583 -0.0020214687859 -0.0019881757436 
-0.0019670448279 -0.0019963551924 -0.0020662364477 -0.0021262099449 -0.0021311706242 -0.002088773125 -0.0020497069095 -0.0020488080479 -0.0020662620734 
-0.0020440438735 -0.0019577008481 -0.0018611404623 -0.0018303281314 -0.0018889645508 -0.0019854528579 -0.0020319973441 -0.0019907485129 -0.0019173074879 
-0.0018922033976 -0.0019462091234 -0.0020411395008 -0.002105645159 -0.0020968076547 -0.0020314792644 -0.0019660415574 -0.0019507672472 -0.001993733272 
-0.0020593006758 -0.0020965962308 -0.0020755604596 -0.0020093206835 -0.001942853773 -0.001918873676 -0.0019502113095 -0.0020143008446 -0.0020743177907 
-0.0021112788093 -0.0021347265682 -0.0021598971825 -0.0021826027277 -0.0021826845218 -0.0021429947622 -0.0020644953516 -0.0019753947127 -0.0019198173049 
-0.0019242795928 -0.0020036431924 -0.0020427631281 -0.0020264085869 -0.0019684920725 -0.001926891908 -0.001945730983 -0.0020150538381 -0.0020782596518 
-0.0020797555226 -0.0020208874573 -0.001959148061 -0.0019430222111 -0.0019615600914 -0.0019524139448 -0.0018769873457 -0.0017825124149 -0.0017479273905 
-0.0018001312346 -0.0018858351726 -0.0019169361264 -0.001864929079 -0.001798867778 -0.0018049907647 -0.0019077405178 -0.0020550249663 -0.0021636508554 
-0.0021848054712 -0.0021316476651 -0.0020574190379 -0.0020142836846 -0.0020198763996 -0.0020523388356 -0.0020717713834 -0.002052154632 -0.0020035496833 
-0.0019631227501 -0.0019632520085 -0.0020057406422 -0.0020592260438 -0.0020854794795 -0.0020791088194 -0.002075054264 -0.0021069415866 -0.0021641435234 
-0.0021987023643 -0.0021726762077 -0.0020903685598 -0.0019951563066 -0.0019403775376 -0.0019510009422 -0.002036262325 -0.002068165936 -0.0020423630625 
-0.0019780573143 -0.0019333383068 -0.0019496376574 -0.0020139057812 -0.0020653910163 -0.0020435470423 -0.0019508274526 -0.001856335092 -0.0018256441845 
-0.0018616897801 -0.0019024460593 -0.0018863332104 -0.0018324100198 -0.0018091491807 -0.0018444651315 -0.0018935477747 -0.0018835762894 -0.0018065219482 
-0.0017393705065 -0.0017642741485 -0.0018957695193 -0.0020715344344 -0.0022041298559 -0.0022448670239 -0.0022040954619 -0.0021284858669 -0.002068418315 
-0.0020484206084 -0.0020578567135 -0.0020663832016 -0.0020525743891 -0.0020249144688 -0.0020129324191 -0.0020363514817 -0.0020816878219 -0.0021047655446 
-0.0020671549579 -0.0019841323774 -0.0019227657541 -0.0019412983295 -0.0020312760932 -0.0021198452048 -0.0021378371471 -0.0020818087602 -0.0020040786172 
-0.0019634004669 -0.0019830170476 -0.0020630154318 -0.0020885887838 -0.0020662240579 -0.0020167809566 -0.0019882838007 -0.0020116396278 -0.0020693771465 
-0.0021015358423 -0.0020505312567 -0.0019239741827 -0.0017990296698 -0.0017540052242 -0.0018062982508 -0.0019014867067 -0.0019638028109 -0.0019739261266 
-0.0019741111777 -0.0019911231892 -0.0019970222687 -0.0019470185976 -0.0018518660181 -0.0017831660113 -0.001809596985 -0.0019362850847 -0.0020982740442 
-0.0022134855054 -0.0022422259068 -0.0021974115085 -0.0021219658898 -0.0020628424304 -0.0020441429617 -0.002056158637 -0.0020693577821 -0.0020637563434 
-0.0020502169454 -0.0020581865109 -0.0021001800712 -0.0021480036025 -0.0021419887432 -0.002041698071 -0.0018813383501 -0.0017559908146 -0.0017481979954 
-0.0018571435224 -0.0019962476838 -0.0020697263103 -0.0020573010734 -0.0020103606637 -0.0019885703485 -0.0020143068474 -0.0020795888287 -0.0020953059388 
-0.0020815274773 -0.0020584295083 -0.0020582142575 -0.0020958181879 -0.0021488000495 -0.0021640167837 -0.0020950794685 -0.0019535052911 -0.0018143066489 
-0.0017582243424 -0.0018122547297 -0.0019333162467 -0.0020470698295 -0.0021107402206 -0.0021353358119 -0.0021409034186 -0.0021197149674 -0.0020557067619 
-0.0019661397643 -0.0019050246417 -0.0019219125304 -0.0020147419002 -0.0021241664031 -0.0021839900124 -0.0021704507422 -0.0021033632727 -0.0020269311655 
-0.0019850572403 -0.0019941573183 -0.0020339927784 -0.0020651479629 -0.0020647046866 -0.0020516393344 -0.0020668927547 -0.002125478671 -0.0021889193699 
-0.0021810085767 -0.0020527500574 -0.0018473054531 -0.0016767235628 -0.0016412470839 -0.0017502818227 -0.0019144941094 -0.0020266257805 -0.0020520081718 
-0.0020327078477 -0.0020232760387 -0.0020450065088 -0.0020804316903 -0.0020819652487 -0.0020747425252 -0.00207613234 -0.0021029709721 -0.0021541422498 
-0.0022033244994 -0.0022099344951 -0.0021446592262 -0.0020183607878 -0.0018904169113 -0.001831587069 -0.0018711892262 -0.0019781908451 -0.0020911973121 
-0.0021671985489 -0.0022008648534 -0.002204045966 -0.002182288566 -0.0021360087408 -0.002077278552 -0.0020366861808 -0.002042644997 -0.0020880813228 
-0.0021280500008 -0.0021209749435 -0.0020595070727 -0.0019690678539 -0.0018952905279 -0.0018788539865 -0.0019261139727 -0.0020012136771 -0.0020490255329 
-0.0020412201191 -0.0020105849118 -0.0020196843494 -0.0020945342839 -0.0021919680425 -0.0022205120947 -0.0021153524523 -0.001914908174 -0.0017356033637 
-0.0016823653229 -0.001773133927 -0.0019284361477 -0.0020455906584 -0.0020847547558 -0.002076148852 -0.0020645097607 -0.0020692304283 -0.0020612948629 
-0.0020525317531 -0.0020507862082 -0.0020677141201 -0.0021084461412 -0.0021614616087 -0.0022016502012 -0.0022052838957 -0.0021615206965 -0.0020779256955 
-0.0019879441806 -0.0019392734176 -0.0019562130579 -0.0020200993175 -0.0020903251991 -0.0021384443704 -0.0021600187495 -0.0021641313756 -0.0021593064736 
-0.0021479376337 -0.0021318822328 -0.0021197873607 -0.0021200721763 -0.0021240491702 -0.0021075081435 -0.0020534204731 -0.0019655011995 -0.0018699333218 
-0.0018092933937 -0.0018184658579 -0.0018943459548 -0.0019885694286 -0.0020336619632 -0.0019985288407 -0.0019325655861 -0.0019220550062 -0.0020067950367 
-0.0021439367458 -0.0022324645716 -0.0021910683303 -0.0020414815775 -0.0018901993443 -0.0018359873413 -0.0019005788841 -0.0020215774094 -0.0021131551109 
-0.002138980149 -0.0021199307278 -0.0020914783913 -0.0020724219069 -0.0020266180872 -0.0020228159913 -0.0020308724463 -0.0020546402066 -0.0020918557812 
-0.0021286612195 -0.0021489682762 -0.0021480958891 -0.0021306244339 -0.0021007097041 -0.0020653889162 -0.0020408932272 -0.0020387732325 -0.0020512136369 
-0.002061497087 -0.0020626278337 -0.0020608452286 -0.0020664939283 -0.0020839097988 -0.0021080329753 -0.0021296103894 -0.0021419849252 -0.0021410062593 
-0.0021212940507 -0.0020783285364 -0.0020128208994 -0.0019330903656 -0.0018596427508 -0.0018247264578 -0.0018531845655 -0.0019354241322 -0.002020171387 
-0.0020385424227 -0.0019625918754 -0.0018538712482 -0.001814162885 -0.0018945851382 -0.002055380128 -0.002194134916 -0.002221258452 -0.0021409289314 
-0.0020393635297 -0.0020005218554 -0.0020452504956 -0.0021266780903 -0.0021786927603 -0.0021732169882 -0.0021284612286 -0.002077807882 -0.0020429997159 
-0.0019896970252 -0.0020097029709 -0.0020343401757 -0.0020590908546 -0.0020786356263 -0.0020844758427 -0.0020758617 -0.0020659069999 -0.0020690028384 
-0.0020857239313 -0.0021036083799 -0.0021104908481 -0.0021008035424 -0.0020724243346 -0.0020293282573 -0.0019860662173 -0.0019622748013 -0.0019704758765 
-0.0020078841343 -0.0020586899088 -0.0021034377972 -0.0021269436975 -0.0021220901655 -0.0020920782035 -0.0020484394181 -0.0020025560903 -0.0019611297889 
-0.001931817944 -0.001929351904 -0.0019663283884 -0.0020327159441 -0.0020866298728 -0.0020704931059 -0.001961807587 -0.0018215493816 -0.0017531896892 
-0.0018143385895 -0.00197050622 -0.0021239746032 -0.0021883364277 -0.0021594816282 -0.0021048890691 -0.0020898149614 -0.0021283596548 -0.0021814113113 
-0.0021964063531 -0.0021550153506 -0.0020820435219 -0.002017402831 -0.0019868300062 -0.0019657049121 -0.0020183441277 -0.0020607625483 -0.0020816312077 
-0.0020772753999 -0.0020498730422 -0.002014297712 -0.0019951951036 -0.0020103109347 -0.0020562230343 -0.0021096174552 -0.002142259611 -0.0021359250137 
-0.0020885207347 -0.0020151684268 -0.0019446054292 -0.0019067141606 -0.0019163600935 -0.0019654092623 -0.0020290724578 -0.0020799248365 -0.002099124623 
-0.0020832297028 -0.0020467302821 -0.0020135238316 -0.0020003199492 -0.0020078555322 -0.002027021125 -0.0020523435091 -0.0020860208443 -0.0021248775024 
-0.0021462373504 -0.0021114058231 -0.0019998567695 -0.0018566995506 -0.0017733686506 -0.0018075810082 -0.0019333102228 -0.0020641678766 -0.0021258839395 
-0.0021157063404 -0.0020882313932 -0.0020927333234 -0.002133735929 -0.0021718991446 -0.0021606651072 -0.0020916693212 -0.0020013020705 -0.0019379390078 
-0.0019287889013 -0.0019660410945 -0.0020397015889 -0.0020874492628 -0.0020969281857 -0.0020715764364 -0.0020246238401 -0.0019786119055 -0.0019592015298 
-0.0019810893149 -0.0020370833769 -0.0021014103133 -0.0021444707234 -0.002146026978 -0.0021012644231 -0.0020243533766 -0.0019466113131 -0.0019023495195 
-0.0019092620352 -0.0019583959121 -0.002020885018 -0.002064742178 -0.0020705161352 -0.0020405486942 -0.0019985734559 -0.0019755659828 -0.0019890998313 
-0.0020325949263 -0.0020826403687 -0.0021187039799 -0.0021380144542 -0.0021487604607 -0.0021503309452 -0.002123158894 -0.002045149338 -0.0019347368944 
-0.0018590023098 -0.0018702108568 -0.0019529951789 -0.0020401691276 -0.0020755729827 -0.0020610798346 -0.0020417056377 -0.0020548247236 -0.0020971960988 
-0.0021278260331 -0.0021040110543 -0.0020250123518 -0.001934618284 -0.0018848751201 -0.0019007594305 -0.0019915415209 -0.0020566590718 -0.0020858741768 
-0.0020755283161 -0.0020393643443 -0.0019957079758 -0.0019630995389 -0.0019577183466 -0.0019857801128 -0.0020373452804 -0.0020917897529 -0.0021297239509 
-0.0021375476352 -0.002107428949 -0.0020444815503 -0.0019731075041 -0.0019265529465 -0.0019254835837 -0.0019647149207 -0.0020173175125 -0.0020511392187 
-0.0020472322164 -0.0020106884917 -0.0019682607737 -0.0019519595902 -0.0019769305133 -0.0020303757685 -0.0020812459598 -0.0021039116821 -0.0020976061348 
-0.0020830554894 -0.0020782820672 -0.002077373238 -0.0020553419648 -0.0020039006922 -0.001957697662 -0.0019581433247 -0.0020020933336 -0.0020465252356 
-0.0020547136647 -0.0020308446701 -0.0020104609231 -0.0020221431364 -0.0020598091665 -0.0020859632962 -0.0020640720226 -0.0019956531329 -0.0019220844997 
-0.001891164358 -0.0019217741202 -0.0020271684046 -0.0020557210836 -0.0020499589459 -0.0020197038318 -0.0019851653657 -0.0019621790854 -0.0019586341828 
-0.0019762968734 -0.0020104250594 -0.002049938703 -0.0020842342378 -0.0021084950933 -0.0021180063016 -0.0021029960475 -0.0020582012975 -0.0019972966578 
-0.0019493331364 -0.0019376934541 -0.0019636233858 -0.0020064955571 -0.0020374469011 -0.0020372607114 -0.0020083813969 -0.0019738636698 -0.0019619126537 
-0.0019839100146 -0.0020239463863 -0.0020504013807 -0.0020407324443 -0.0020013881747 -0.0019650619785 -0.0019621313631 -0.0019922057835 -0.0020251982975 
-0.002033528518 -0.0020234691221 -0.0020226397551 -0.0020399139907 -0.0020567055798 -0.0020521136789 -0.0020275627858 -0.0020067090617 -0.0020111479125 
-0.0020381546865 -0.0020613244006 -0.0020531732932 -0.002011860882 -0.0019664240359 -0.0019525264426 -0.0019807782734 -0.0020526436982 -0.0020421465277 
-0.0020093719972 -0.0019712076112 -0.001947071955 -0.0019466485224 -0.0019680027587 -0.0020019536568 -0.0020364448262 -0.0020617356714 -0.0020767015027 
-0.0020869238712 -0.0020932280766 -0.0020854154726 -0.0020523183257 -0.0019998061889 -0.0019528844456 -0.0019361963006 -0.0019558588757 -0.0019971333706 