# vtk DataFile Version 4.2
vtk output
ASCII
DATASET UNSTRUCTURED_GRID
POINTS 2601 double
0 0 0 1 0 0 2 0 0 
3 0 0 4 0 0 5 0 0 
6 0 0 7 0 0 8 0 0 
9 0 0 10 0 0 11 0 0 
12 0 0 13 0 0 14 0 0 
15 0 0 16 0 0 17 0 0 
18 0 0 19 0 0 20 0 0 
21 0 0 22 0 0 23 0 0 
24 0 0 25 0 0 26 0 0 
27 0 0 28 0 0 29 0 0 
30 0 0 31 0 0 32 0 0 
33 0 0 34 0 0 35 0 0 
36 0 0 37 0 0 38 0 0 
39 0 0 40 0 0 41 0 0 
42 0 0 43 0 0 44 0 0 
45 0 0 46 0 0 47 0 0 
48 0 0 49 0 0 50 0 0 
0 1 0 1 1 0 2 1 0 
3 1 0 4 1 0 5 1 0 
6 1 0 7 1 0 8 1 0 
9 1 0 10 1 0 11 1 0 
12 1 0 13 1 0 14 1 0 
15 1 0 16 1 0 17 1 0 
18 1 0 19 1 0 20 1 0 
21 1 0 22 1 0 23 1 0 
24 1 0 25 1 0 26 1 0 
27 1 0 28 1 0 29 1 0 
30 1 0 31 1 0 32 1 0 
33 1 0 34 1 0 35 1 0 
36 1 0 37 1 0 38 1 0 
39 1 0 40 1 0 41 1 0 
42 1 0 43 1 0 44 1 0 
45 1 0 46 1 0 47 1 0 
48 1 0 49 1 0 50 1 0 
0 2 0 1 2 0 2 2 0 
3 2 0 4 2 0 5 2 0 
6 2 0 7 2 0 8 2 0 
9 2 0 10 2 0 11 2 0 
12 2 0 13 2 0 14 2 0 
15 2 0 16 2 0 17 2 0 
18 2 0 19 2 0 20 2 0 
21 2 0 22 2 0 23 2 0 
24 2 0 25 2 0 26 2 0 
27 2 0 28 2 0 29 2 0 
30 2 0 31 2 0 32 2 0 
33 2 0 34 2 0 35 2 0 
36 2 0 37 2 0 38 2 0 
39 2 0 40 2 0 41 2 0 
42 2 0 43 2 0 44 2 0 
45 2 0 46 2 0 47 2 0 
48 2 0 49 2 0 50 2 0 
0 3 0 1 3 0 2 3 0 
3 3 0 4 3 0 5 3 0 
6 3 0 7 3 0 8 3 0 
9 3 0 10 3 0 11 3 0 
12 3 0 13 3 0 14 3 0 
15 3 0 16 3 0 17 3 0 
18 3 0 19 3 0 20 3 0 
21 3 0 22 3 0 23 3 0 
24 3 0 25 3 0 26 3 0 
27 3 0 28 3 0 29 3 0 
30 3 0 31 3 0 32 3 0 
33 3 0 34 3 0 35 3 0 
36 3 0 37 3 0 38 3 0 
39 3 0 40 3 0 41 3 0 
42 3 0 43 3 0 44 3 0 
45 3 0 46 3 0 47 3 0 
48 3 0 49 3 0 50 3 0 
0 4 0 1 4 0 2 4 0 
3 4 0 4 4 0 5 4 0 
6 4 0 7 4 0 8 4 0 
9 4 0 10 4 0 11 4 0 
12 4 0 13 4 0 14 4 0 
15 4 0 16 4 0 17 4 0 
18 4 0 19 4 0 20 4 0 
21 4 0 22 4 0 23 4 0 
24 4 0 25 4 0 26 4 0 
27 4 0 28 4 0 29 4 0 
30 4 0 31 4 0 32 4 0 
33 4 0 34 4 0 35 4 0 
36 4 0 37 4 0 38 4 0 
39 4 0 40 4 0 41 4 0 
42 4 0 43 4 0 44 4 0 
45 4 0 46 4 0 47 4 0 
48 4 0 49 4 0 50 4 0 
0 5 0 1 5 0 2 5 0 
3 5 0 4 5 0 5 5 0 
6 5 0 7 5 0 8 5 0 
9 5 0 10 5 0 11 5 0 
12 5 0 13 5 0 14 5 0 
15 5 0 16 5 0 17 5 0 
18 5 0 19 5 0 20 5 0 
21 5 0 22 5 0 23 5 0 
24 5 0 25 5 0 26 5 0 
27 5 0 28 5 0 29 5 0 
30 5 0 31 5 0 32 5 0 
33 5 0 34 5 0 35 5 0 
36 5 0 37 5 0 38 5 0 
39 5 0 40 5 0 41 5 0 
42 5 0 43 5 0 44 5 0 
45 5 0 46 5 0 47 5 0 
48 5 0 49 5 0 50 5 0 
0 6 0 1 6 0 2 6 0 
3 6 0 4 6 0 5 6 0 
6 6 0 7 6 0 8 6 0 
9 6 0 10 6 0 11 6 0 
12 6 0 13 6 0 14 6 0 
15 6 0 16 6 0 17 6 0 
18 6 0 19 6 0 20 6 0 
21 6 0 22 6 0 23 6 0 
24 6 0 25 6 0 26 6 0 
27 6 0 28 6 0 29 6 0 
30 6 0 31 6 0 32 6 0 
33 6 0 34 6 0 35 6 0 
36 6 0 37 6 0 38 6 0 
39 6 0 40 6 0 41 6 0 
42 6 0 43 6 0 44 6 0 
45 6 0 46 6 0 47 6 0 
48 6 0 49 6 0 50 6 0 
0 7 0 1 7 0 2 7 0 
3 7 0 4 7 0 5 7 0 
6 7 0 7 7 0 8 7 0 
9 7 0 10 7 0 11 7 0 
12 7 0 13 7 0 14 7 0 
15 7 0 16 7 0 17 7 0 
18 7 0 19 7 0 20 7 0 
21 7 0 22 7 0 23 7 0 
24 7 0 25 7 0 26 7 0 
27 7 0 28 7 0 29 7 0 
30 7 0 31 7 0 32 7 0 
33 7 0 34 7 0 35 7 0 
36 7 0 37 7 0 38 7 0 
39 7 0 40 7 0 41 7 0 
42 7 0 43 7 0 44 7 0 
45 7 0 46 7 0 47 7 0 
48 7 0 49 7 0 50 7 0 
0 8 0 1 8 0 2 8 0 
3 8 0 4 8 0 5 8 0 
6 8 0 7 8 0 8 8 0 
9 8 0 10 8 0 11 8 0 
12 8 0 13 8 0 14 8 0 
15 8 0 16 8 0 17 8 0 
18 8 0 19 8 0 20 8 0 
21 8 0 22 8 0 23 8 0 
24 8 0 25 8 0 26 8 0 
27 8 0 28 8 0 29 8 0 
30 8 0 31 8 0 32 8 0 
33 8 0 34 8 0 35 8 0 
36 8 0 37 8 0 38 8 0 
39 8 0 40 8 0 41 8 0 
42 8 0 43 8 0 44 8 0 
45 8 0 46 8 0 47 8 0 
48 8 0 49 8 0 50 8 0 
0 9 0 1 9 0 2 9 0 
3 9 0 4 9 0 5 9 0 
6 9 0 7 9 0 8 9 0 
9 9 0 10 9 0 11 9 0 
12 9 0 13 9 0 14 9 0 
15 9 0 16 9 0 17 9 0 
18 9 0 19 9 0 20 9 0 
21 9 0 22 9 0 23 9 0 
24 9 0 25 9 0 26 9 0 
27 9 0 28 9 0 29 9 0 
30 9 0 31 9 0 32 9 0 
33 9 0 34 9 0 35 9 0 
36 9 0 37 9 0 38 9 0 
39 9 0 40 9 0 41 9 0 
42 9 0 43 9 0 44 9 0 
45 9 0 46 9 0 47 9 0 
48 9 0 49 9 0 50 9 0 
0 10 0 1 10 0 2 10 0 
3 10 0 4 10 0 5 10 0 
6 10 0 7 10 0 8 10 0 
9 10 0 10 10 0 11 10 0 
12 10 0 13 10 0 14 10 0 
15 10 0 16 10 0 17 10 0 
18 10 0 19 10 0 20 10 0 
21 10 0 22 10 0 23 10 0 
24 10 0 25 10 0 26 10 0 
27 10 0 28 10 0 29 10 0 
30 10 0 31 10 0 32 10 0 
33 10 0 34 10 0 35 10 0 
36 10 0 37 10 0 38 10 0 
39 10 0 40 10 0 41 10 0 
42 10 0 43 10 0 44 10 0 
45 10 0 46 10 0 47 10 0 
48 10 0 49 10 0 50 10 0 
0 11 0 1 11 0 2 11 0 
3 11 0 4 11 0 5 11 0 
6 11 0 7 11 0 8 11 0 
9 11 0 10 11 0 11 11 0 
12 11 0 13 11 0 14 11 0 
15 11 0 16 11 0 17 11 0 
18 11 0 19 11 0 20 11 0 
21 11 0 22 11 0 23 11 0 
24 11 0 25 11 0 26 11 0 
27 11 0 28 11 0 29 11 0 
30 11 0 31 11 0 32 11 0 
33 11 0 34 11 0 35 11 0 
36 11 0 37 11 0 38 11 0 
39 11 0 40 11 0 41 11 0 
42 11 0 43 11 0 44 11 0 
45 11 0 46 11 0 47 11 0 
48 11 0 49 11 0 50 11 0 
0 12 0 1 12 0 2 12 0 
3 12 0 4 12 0 5 12 0 
6 12 0 7 12 0 8 12 0 
9 12 0 10 12 0 11 12 0 
12 12 0 13 12 0 14 12 0 
15 12 0 16 12 0 17 12 0 
18 12 0 19 12 0 20 12 0 
21 12 0 22 12 0 23 12 0 
24 12 0 25 12 0 26 12 0 
27 12 0 28 12 0 29 12 0 
30 12 0 31 12 0 32 12 0 
33 12 0 34 12 0 35 12 0 
36 12 0 37 12 0 38 12 0 
39 12 0 40 12 0 41 12 0 
42 12 0 43 12 0 44 12 0 
45 12 0 46 12 0 47 12 0 
48 12 0 49 12 0 50 12 0 
0 13 0 1 13 0 2 13 0 
3 13 0 4 13 0 5 13 0 
6 13 0 7 13 0 8 13 0 
9 13 0 10 13 0 11 13 0 
12 13 0 13 13 0 14 13 0 
15 13 0 16 13 0 17 13 0 
18 13 0 19 13 0 20 13 0 
21 13 0 22 13 0 23 13 0 
24 13 0 25 13 0 26 13 0 
27 13 0 28 13 0 29 13 0 
30 13 0 31 13 0 32 13 0 
33 13 0 34 13 0 35 13 0 
36 13 0 37 13 0 38 13 0 
39 13 0 40 13 0 41 13 0 
42 13 0 43 13 0 44 13 0 
45 13 0 46 13 0 47 13 0 
48 13 0 49 13 0 50 13 0 
0 14 0 1 14 0 2 14 0 
3 14 0 4 14 0 5 14 0 
6 14 0 7 14 0 8 14 0 
9 14 0 10 14 0 11 14 0 
12 14 0 13 14 0 14 14 0 
15 14 0 16 14 0 17 14 0 
18 14 0 19 14 0 20 14 0 
21 14 0 22 14 0 23 14 0 
24 14 0 25 14 0 26 14 0 
27 14 0 28 14 0 29 14 0 
30 14 0 31 14 0 32 14 0 
33 14 0 34 14 0 35 14 0 
36 14 0 37 14 0 38 14 0 
39 14 0 40 14 0 41 14 0 
42 14 0 43 14 0 44 14 0 
45 14 0 46 14 0 47 14 0 
48 14 0 49 14 0 50 14 0 
0 15 0 1 15 0 2 15 0 
3 15 0 4 15 0 5 15 0 
6 15 0 7 15 0 8 15 0 
9 15 0 10 15 0 11 15 0 
12 15 0 13 15 0 14 15 0 
15 15 0 16 15 0 17 15 0 
18 15 0 19 15 0 20 15 0 
21 15 0 22 15 0 23 15 0 
24 15 0 25 15 0 26 15 0 
27 15 0 28 15 0 29 15 0 
30 15 0 31 15 0 32 15 0 
33 15 0 34 15 0 35 15 0 
36 15 0 37 15 0 38 15 0 
39 15 0 40 15 0 41 15 0 
42 15 0 43 15 0 44 15 0 
45 15 0 46 15 0 47 15 0 
48 15 0 49 15 0 50 15 0 
0 16 0 1 16 0 2 16 0 
3 16 0 4 16 0 5 16 0 
6 16 0 7 16 0 8 16 0 
9 16 0 10 16 0 11 16 0 
12 16 0 13 16 0 14 16 0 
15 16 0 16 16 0 17 16 0 
18 16 0 19 16 0 20 16 0 
21 16 0 22 16 0 23 16 0 
24 16 0 25 16 0 26 16 0 
27 16 0 28 16 0 29 16 0 
30 16 0 31 16 0 32 16 0 
33 16 0 34 16 0 35 16 0 
36 16 0 37 16 0 38 16 0 
39 16 0 40 16 0 41 16 0 
42 16 0 43 16 0 44 16 0 
45 16 0 46 16 0 47 16 0 
48 16 0 49 16 0 50 16 0 
0 17 0 1 17 0 2 17 0 
3 17 0 4 17 0 5 17 0 
6 17 0 7 17 0 8 17 0 
9 17 0 10 17 0 11 17 0 
12 17 0 13 17 0 14 17 0 
15 17 0 16 17 0 17 17 0 
18 17 0 19 17 0 20 17 0 
21 17 0 22 17 0 23 17 0 
24 17 0 25 17 0 26 17 0 
27 17 0 28 17 0 29 17 0 
30 17 0 31 17 0 32 17 0 
33 17 0 34 17 0 35 17 0 
36 17 0 37 17 0 38 17 0 
39 17 0 40 17 0 41 17 0 
42 17 0 43 17 0 44 17 0 
45 17 0 46 17 0 47 17 0 
48 17 0 49 17 0 50 17 0 
0 18 0 1 18 0 2 18 0 
3 18 0 4 18 0 5 18 0 
6 18 0 7 18 0 8 18 0 
9 18 0 10 18 0 11 18 0 
12 18 0 13 18 0 14 18 0 
15 18 0 16 18 0 17 18 0 
18 18 0 19 18 0 20 18 0 
21 18 0 22 18 0 23 18 0 
24 18 0 25 18 0 26 18 0 
27 18 0 28 18 0 29 18 0 
30 18 0 31 18 0 32 18 0 
33 18 0 34 18 0 35 18 0 
36 18 0 37 18 0 38 18 0 
39 18 0 40 18 0 41 18 0 
42 18 0 43 18 0 44 18 0 
45 18 0 46 18 0 47 18 0 
48 18 0 49 18 0 50 18 0 
0 19 0 1 19 0 2 19 0 
3 19 0 4 19 0 5 19 0 
6 19 0 7 19 0 8 19 0 
9 19 0 10 19 0 11 19 0 
12 19 0 13 19 0 14 19 0 
15 19 0 16 19 0 17 19 0 
18 19 0 19 19 0 20 19 0 
21 19 0 22 19 0 23 19 0 
24 19 0 25 19 0 26 19 0 
27 19 0 28 19 0 29 19 0 
30 19 0 31 19 0 32 19 0 
33 19 0 34 19 0 35 19 0 
36 19 0 37 19 0 38 19 0 
39 19 0 40 19 0 41 19 0 
42 19 0 43 19 0 44 19 0 
45 19 0 46 19 0 47 19 0 
48 19 0 49 19 0 50 19 0 
0 20 0 1 20 0 2 20 0 
3 20 0 4 20 0 5 20 0 
6 20 0 7 20 0 8 20 0 
9 20 0 10 20 0 11 20 0 
12 20 0 13 20 0 14 20 0 
15 20 0 16 20 0 17 20 0 
18 20 0 19 20 0 20 20 0 
21 20 0 22 20 0 23 20 0 
24 20 0 25 20 0 26 20 0 
27 20 0 28 20 0 29 20 0 
30 20 0 31 20 0 32 20 0 
33 20 0 34 20 0 35 20 0 
36 20 0 37 20 0 38 20 0 
39 20 0 40 20 0 41 20 0 
42 20 0 43 20 0 44 20 0 
45 20 0 46 20 0 47 20 0 
48 20 0 49 20 0 50 20 0 
0 21 0 1 21 0 2 21 0 
3 21 0 4 21 0 5 21 0 
6 21 0 7 21 0 8 21 0 
9 21 0 10 21 0 11 21 0 
12 21 0 13 21 0 14 21 0 
15 21 0 16 21 0 17 21 0 
18 21 0 19 21 0 20 21 0 
21 21 0 22 21 0 23 21 0 
24 21 0 25 21 0 26 21 0 
27 21 0 28 21 0 29 21 0 
30 21 0 31 21 0 32 21 0 
33 21 0 34 21 0 35 21 0 
36 21 0 37 21 0 38 21 0 
39 21 0 40 21 0 41 21 0 
42 21 0 43 21 0 44 21 0 
45 21 0 46 21 0 47 21 0 
48 21 0 49 21 0 50 21 0 
0 22 0 1 22 0 2 22 0 
3 22 0 4 22 0 5 22 0 
6 22 0 7 22 0 8 22 0 
9 22 0 10 22 0 11 22 0 
12 22 0 13 22 0 14 22 0 
15 22 0 16 22 0 17 22 0 
18 22 0 19 22 0 20 22 0 
21 22 0 22 22 0 23 22 0 
24 22 0 25 22 0 26 22 0 
27 22 0 28 22 0 29 22 0 
30 22 0 31 22 0 32 22 0 
33 22 0 34 22 0 35 22 0 
36 22 0 37 22 0 38 22 0 
39 22 0 40 22 0 41 22 0 
42 22 0 43 22 0 44 22 0 
45 22 0 46 22 0 47 22 0 
48 22 0 49 22 0 50 22 0 
0 23 0 1 23 0 2 23 0 
3 23 0 4 23 0 5 23 0 
6 23 0 7 23 0 8 23 0 
9 23 0 10 23 0 11 23 0 
12 23 0 13 23 0 14 23 0 
15 23 0 16 23 0 17 23 0 
18 23 0 19 23 0 20 23 0 
21 23 0 22 23 0 23 23 0 
24 23 0 25 23 0 26 23 0 
27 23 0 28 23 0 29 23 0 
30 23 0 31 23 0 32 23 0 
33 23 0 34 23 0 35 23 0 
36 23 0 37 23 0 38 23 0 
39 23 0 40 23 0 41 23 0 
42 23 0 43 23 0 44 23 0 
45 23 0 46 23 0 47 23 0 
48 23 0 49 23 0 50 23 0 
0 24 0 1 24 0 2 24 0 
3 24 0 4 24 0 5 24 0 
6 24 0 7 24 0 8 24 0 
9 24 0 10 24 0 11 24 0 
12 24 0 13 24 0 14 24 0 
15 24 0 16 24 0 17 24 0 
18 24 0 19 24 0 20 24 0 
21 24 0 22 24 0 23 24 0 
24 24 0 25 24 0 26 24 0 
27 24 0 28 24 0 29 24 0 
30 24 0 31 24 0 32 24 0 
33 24 0 34 24 0 35 24 0 
36 24 0 37 24 0 38 24 0 
39 24 0 40 24 0 41 24 0 
42 24 0 43 24 0 44 24 0 
45 24 0 46 24 0 47 24 0 
48 24 0 49 24 0 50 24 0 
0 25 0 1 25 0 2 25 0 
3 25 0 4 25 0 5 25 0 
[...]
CELL_DATA 2500
SCALARS $\mu_{AB} double
LOOKUP_TABLE default
-0.0022376222166 -0.0022235505579 -0.0021333858188 -0.0020157495719 -0.0019435283476 -0.0019490376283 -0.0020008381112 -0.0020371831588 -0.0020321766424 
-0.0020198792587 -0.0020444969248 -0.0021069127342 -0.0021516751965 -0.0021012879922 -0.0019373787985 -0.0017460019513 -0.0016558541266 -0.0017327836211 
-0.0019200447019 -0.0020818380531 -0.002117411925 -0.0020379438361 -0.001933076819 -0.0018962102624 -0.0019594730421 -0.002071414657 -0.0021445137179 
-0.002138872607 -0.0020869482748 -0.0020407661324 -0.0020252140076 -0.0020350297214 -0.0020520518996 -0.0020570080938 -0.002033289532 -0.0019774766361 
-0.0019142375862 -0.0018906627908 -0.0019410206052 -0.002052881811 -0.0021688850107 -0.0022267042215 -0.0022081363706 -0.0021421062376 -0.0020699740699 
-0.0020230892789 -0.0020165204618 -0.0020503065877 -0.0021140606393 -0.0021876907592 -0.0021969434083 -0.002206796177 -0.0021454795732 -0.002047992616 
-0.001979048812 -0.0019722906953 -0.0020037450837 -0.0020219003651 -0.0020087029763 -0.0019988336282 -0.0020328805475 -0.0021085375843 -0.0021702000187 
-0.0021435384028 -0.0020095908341 -0.001843020622 -0.0017567292374 -0.0018104371965 -0.0019601247828 -0.0020976172299 -0.0021481757404 -0.0021183343742 
-0.0020657899428 -0.0020503306163 -0.0020863937234 -0.0021283103368 -0.0021186582923 -0.0020536358633 -0.0019834145359 -0.0019582852137 -0.001989551342 
-0.0020514513121 -0.0021052972474 -0.002118329781 -0.0020705731009 -0.0019638350025 -0.0018365558761 -0.0017571109008 -0.0017804993901 -0.0019040734216 
-0.0020667714776 -0.0021873740115 -0.0022183636387 -0.0021741489463 -0.0020994802203 -0.0020337074871 -0.0020009893922 -0.002011220402 -0.0020616176096 
-0.0021347893474 -0.002112496151 -0.0021225952783 -0.0020806970535 -0.0020153655839 -0.0019784465067 -0.0019934131463 -0.0020335836507 -0.0020515140164 
-0.0020348770514 -0.0020214611702 -0.002053329839 -0.0021301173015 -0.0021992238285 -0.0021905319716 -0.0020829103672 -0.0019352285641 -0.0018413723789 
-0.0018554445463 -0.0019505100824 -0.0020525983898 -0.0021121989547 -0.0021303352029 -0.0021348973909 -0.0021495860438 -0.0021685044066 -0.0021553071509 
-0.0020836151996 -0.0019764206953 -0.0018932578647 -0.0018811419152 -0.0019403785229 -0.0020311282551 -0.0021046629037 -0.0021265967745 -0.0020784717336 
-0.0019586990505 -0.0018028118006 -0.0016860639027 -0.0016772726175 -0.0017861608472 -0.0019583010853 -0.0021149169813 -0.0021969212079 -0.0021964132694 
-0.0021456032566 -0.0020808932481 -0.0020288196082 -0.0020068806204 -0.0020225212631 -0.0020670168704 -0.0020421542393 -0.0020277499976 -0.001984787374 
-0.0019437618119 -0.0019458236039 -0.0019987027923 -0.0020643217495 -0.0020909744695 -0.0020676181962 -0.0020384261299 -0.0020550958332 -0.0021257656354 
-0.0022016426402 -0.002212125746 -0.0021296153553 -0.0019975035371 -0.0018927207226 -0.0018648377683 -0.0019030282613 -0.0019621296972 -0.0020134869457 
-0.0020597991197 -0.0021124461677 -0.0021667645449 -0.0021954501492 -0.0021654526698 -0.0020703057211 -0.00194864312 -0.0018639804968 -0.0018589619425 
-0.0019257329367 -0.0020187106857 -0.0020919901571 -0.0021212532837 -0.0020939921747 -0.0020010130083 -0.0018597753666 -0.0017338055464 -0.001693449752 
-0.0017597172534 -0.001895252375 -0.0020383837485 -0.0021404242204 -0.0021837678609 -0.0021785174914 -0.0021431307427 -0.0020952584927 -0.0020532938159 
-0.0020326884965 -0.0020349718042 -0.0020116776925 -0.0019634396801 -0.0019071575568 -0.0018776291266 -0.0019082604396 -0.0019924868556 -0.0020787085823 
-0.0021059660968 -0.0020614733577 -0.0020001936729 -0.0019920233497 -0.0020591763768 -0.0021554912472 -0.0022016368758 -0.002156743087 -0.0020507856097 
-0.0019480908225 -0.0018931921497 -0.001884594961 -0.001896179182 -0.0019167570855 -0.0019585796058 -0.0020319681707 -0.0021195142615 -0.0021769928098 
-0.0021646616222 -0.0020815677459 -0.0019726713661 -0.0019013260684 -0.0019042775764 -0.0019676947362 -0.0020468563064 -0.002106488584 -0.0021363899265 
-0.0021325799883 -0.0020834017556 -0.0019864569486 -0.0018768303566 -0.0018114201758 -0.0018175519173 -0.001879812972 -0.0019635372475 -0.0020421852755 
-0.0021051125039 -0.0021483185212 -0.0021661288864 -0.0021544562722 -0.0021203197882 -0.0020806268176 -0.0020463488412 -0.0020112208691 -0.0019442158726 
-0.001881031158 -0.0018578049507 -0.0019026946051 -0.0020004898065 -0.0020901602221 -0.0021025601697 -0.0020246996768 -0.001924847903 -0.0018918229005 
-0.0019608898263 -0.0020869378416 -0.0021808888771 -0.0021870153855 -0.0021231468312 -0.0020436964355 -0.0019859746665 -0.0019496517345 -0.0019183696301 
-0.0018937960614 -0.0019002242261 -0.0019570929476 -0.0020499839515 -0.0021291756632 -0.002144630982 -0.0020892035041 -0.0020067039787 -0.0019584125397 
-0.0019758097385 -0.002040179704 -0.0021080515522 -0.0021529658949 -0.0021754033291 -0.0021798097302 -0.0021596315329 -0.0021060025253 -0.0020267104234 
-0.0019505074128 -0.0019016575162 -0.0018835077458 -0.001889608246 -0.0019183210443 -0.0019718800838 -0.002043524593 -0.0021122512095 -0.0021521032566 
-0.0021502798565 -0.0021165022349 -0.0020681551129 -0.0020108414121 -0.001957908047 -0.0019086527502 -0.0018954795016 -0.0019444192149 -0.0020400274981 
-0.002120624968 -0.0021151413673 -0.0020121053179 -0.0018868335816 -0.0018374900302 -0.0019068726836 -0.0020514355814 -0.0021794792346 -0.0022280295792 
-0.0022069827282 -0.0021637475717 -0.0021267982859 -0.0020887326633 -0.0020326049548 -0.001965560664 -0.0019213045291 -0.001932703981 -0.0019986844118 
-0.0020744223598 -0.0021024936476 -0.0020644310262 -0.0019995703725 -0.0019700112675 -0.0020071865046 -0.002088546325 -0.0021647424101 -0.002206327854 
-0.0022162102406 -0.0022061136397 -0.0021810395691 -0.0021427766958 -0.0020928910643 -0.0020322201025 -0.0019646149594 -0.0018981938998 -0.0018459470186 
-0.0018263725909 -0.0018543336971 -0.0019261470579 -0.0020152217234 -0.0020843707771 -0.0021086353366 -0.002092149194 -0.0020557392343 -0.001989791025 
-0.0019795733341 -0.0019626298986 -0.0019629935476 -0.0020087414663 -0.0020939149368 -0.0021665106694 -0.0021597300433 -0.0020592962855 -0.001935104735 
-0.0018823465923 -0.001944213927 -0.0020809867364 -0.0022056006291 -0.0022578178707 -0.0022509622058 -0.0022362519913 -0.0022366856723 -0.0022279994793 
-0.0021769648706 -0.0020861553678 -0.0019964513066 -0.0019562611464 -0.0019818324117 -0.00203651497 -0.0020572732323 -0.0020144335073 -0.0019440290636 
-0.001914424708 -0.0019648940725 -0.0020733928367 -0.0021785930861 -0.0022325191433 -0.0022283800771 -0.0021844036918 -0.0021256481171 -0.0020780312817 
-0.0020531029778 -0.0020358927709 -0.0020018057558 -0.0019437287647 -0.001878084112 -0.0018340663318 -0.0018357085679 -0.0018844813231 -0.0019545505947 
-0.0020076510215 -0.0020217225604 -0.0020089535193 -0.0019957409416 -0.0019570582119 -0.0019946157747 -0.0020082880482 -0.0020124677244 -0.0020435120142 
-0.0021145033593 -0.0021901545364 -0.002207998434 -0.0021417596767 -0.0020438073298 -0.0019982760255 -0.0020446957275 -0.0021470610935 -0.0022239046975 
-0.0022242454138 -0.0021816671711 -0.0021693393367 -0.0022136733469 -0.002267008686 -0.0022579412741 -0.0021701057149 -0.0020548097819 -0.0019821206373 
-0.0019843127002 -0.0020277612624 -0.0020410063374 -0.001984464425 -0.0018930005038 -0.0018437388086 -0.0018883365282 -0.0020109768771 -0.0021427908212 
-0.0022133588757 -0.0021958757823 -0.0021131936067 -0.0020164688492 -0.0019580049289 -0.0019598514527 -0.0019991763163 -0.0020306916368 -0.0020263543716 
-0.0019923155296 -0.0019564053262 -0.001944276931 -0.0019600218123 -0.0019819373196 -0.0019796179984 -0.0019470650368 -0.0019157578585 -0.0019197867949 
-0.001939768583 -0.0020070693144 -0.00202763618 -0.0020108928875 -0.0020105610968 -0.002064471826 -0.0021527333515 -0.0022113419592 -0.0021945389875 
-0.0021307284491 -0.0020919679079 -0.0021169440979 -0.0021720404562 -0.0021762358129 -0.0020910026029 -0.0019834545379 -0.0019530743997 -0.0020309591348 
-0.0021532953433 -0.0022052372681 -0.0021376389181 -0.0020191290661 -0.0019495690511 -0.0019711659628 -0.0020412333005 -0.0020729927861 -0.0020174275914 
-0.001909351629 -0.0018329618391 -0.0018515050066 -0.0019594359132 -0.0020899464334 -0.00216230639 -0.0021335386814 -0.002027044265 -0.0019122496868 
-0.0018571875833 -0.0018882103106 -0.0019766613019 -0.0020661461187 -0.002117681707 -0.0021306154672 -0.002126373685 -0.0021211921052 -0.0021127673129 
-0.0020819199107 -0.0020120098027 -0.0019207437913 -0.0018609462597 -0.0018721717382 -0.0019542875916 -0.0020261580292 -0.0020257063698 -0.0019671464438 
-0.0019273930075 -0.0019647937181 -0.0020659009253 -0.0021585328453 -0.002175624684 -0.0021243672462 -0.0020742103064 -0.0020745630442 -0.0020982879228 
-0.0020570591873 -0.0019139673021 -0.0017579528659 -0.0017077190038 -0.0018005717887 -0.0019579530572 -0.0020392044689 -0.0019770150402 -0.0018648163568 
-0.0018300344267 -0.0019146519099 -0.0020549942373 -0.0021416913442 -0.0021153149667 -0.0020100399878 -0.0019131163029 -0.0018945652279 -0.0019611357775 
-0.0020585756551 -0.0021120825209 -0.0020764785183 -0.0019721173357 -0.0018692523209 -0.0018353613405 -0.0018918489952 -0.0020030793659 -0.0021071353774 
-0.0021671675184 -0.0021959520136 -0.00222337526 -0.0022500774064 -0.0022478058632 -0.0021889480458 -0.0020713928256 -0.0019377817571 -0.0018579949154 
-0.0018726156012 -0.0019935912281 -0.0020543793741 -0.0020237766085 -0.0019276241095 -0.0018592907078 -0.001885976145 -0.0019927395881 -0.002095639901 
-0.0021089919594 -0.0020293539655 -0.0019404260673 -0.0019170972234 -0.0019474091771 -0.0019322947096 -0.0018058503072 -0.0016487753791 -0.0015912652408 
-0.0016789068061 -0.0018235230048 -0.0018759889154 -0.0017848055488 -0.0016713632609 -0.0016767595773 -0.0018344143587 -0.0020568095435 -0.0022136631687 
-0.002235415574 -0.0021522475449 -0.0020477766997 -0.0019941037243 -0.0020101101563 -0.002060568087 -0.0020870538089 -0.0020519870858 -0.0019719195535 
-0.0019052288249 -0.0019041410657 -0.0019750763415 -0.0020713821497 -0.0021269775078 -0.002120559859 -0.00210322527 -0.0021377878017 -0.0022189898434 
-0.0022722368784 -0.002234683298 -0.002111222766 -0.0019680085154 -0.0018874895262 -0.001908423797 -0.0020389273484 -0.0020872958334 -0.0020417796436 
-0.0019362489181 -0.0018642240084 -0.0018892289052 -0.0019913992055 -0.002078437273 -0.0020536536412 -0.0019159163618 -0.0017717162078 -0.0017260870488 
-0.0017890212437 -0.0018599854852 -0.001828210219 -0.0017297834617 -0.001687846406 -0.0017506017986 -0.001841049952 -0.0018270573468 -0.0016914603672 
-0.0015695938558 -0.0015994892233 -0.0018004778606 -0.002067881215 -0.0022638532378 -0.0023177911735 -0.0022563702194 -0.0021534032716 -0.0020785895834 
-0.0020602936399 -0.0020784316736 -0.0020887373991 -0.0020623299993 -0.0020145223994 -0.0019910082499 -0.0020233179474 -0.0020956140235 -0.0021432478326 
-0.0020972599012 -0.0019665645829 -0.0018546920697 -0.0018653146985 -0.0020021044947 -0.0021525420149 -0.0021916393764 -0.0021088382263 -0.0019889460699 
-0.0019252588177 -0.0019555915491 -0.0020759638012 -0.0021142941999 -0.0020754808858 -0.0019934709566 -0.0019448999042 -0.0019785387153 -0.0020691705012 
-0.002125138471 -0.0020519837461 -0.0018581778864 -0.0016651703597 -0.0015990179738 -0.0016912965291 -0.001851607696 -0.0019465127564 -0.0019450996587 
-0.0019353272765 -0.0019683874825 -0.0019913808373 -0.001915129673 -0.0017543430683 -0.0016328797828 -0.0016666199653 -0.0018619676944 -0.0021110743223 
-0.0022819588875 -0.00231745746 -0.0022483014756 -0.002144215322 -0.0020716608709 -0.0020575581538 -0.0020810518668 -0.0020988183713 -0.0020861443683 
-0.0020627854902 -0.0020719902753 -0.0021312052949 -0.0022015420204 -0.0021958120303 -0.0020432789052 -0.0017866090937 -0.0015730230378 -0.0015451159976 
-0.0017183725177 -0.0019602771244 -0.0020980709979 -0.002084221303 -0.0020066652696 -0.0019661553656 -0.0020017132599 -0.0020968794066 -0.0021205613461 
-0.0020969675477 -0.0020562798526 -0.0020485228994 -0.0020994977184 -0.0021790227557 -0.0022070036578 -0.0021063136502 -0.0018906995733 -0.0016783490248 
-0.001598408096 -0.0016953740297 -0.0018950576371 -0.0020703146947 -0.0021526571465 -0.0021772315752 -0.0021880059375 -0.0021656408929 -0.0020702744809 
-0.0019250741379 -0.0018219041348 -0.0018451363746 -0.0019921314343 -0.0021639731957 -0.0022509773334 -0.0022197591962 -0.0021104596758 -0.0019989194067 
-0.0019507074931 -0.0019801776686 -0.0020479082066 -0.0020945432861 -0.0020919261881 -0.0020723234763 -0.0020942081189 -0.0021759578552 -0.0022621432723 
-0.0022425054264 -0.0020375390598 -0.0017098928783 -0.0014287988843 -0.0013639542775 -0.0015467466486 -0.0018335247873 -0.0020362549726 -0.0020815236568 
-0.0020430240565 -0.0020178325535 -0.0020451154338 -0.0020944101261 -0.0020971989512 -0.0020850027501 -0.0020821248518 -0.0021137904809 -0.0021820512564 
-0.0022529273677 -0.0022679397479 -0.0021778557585 -0.0019911127087 -0.0017993347427 -0.001717454341 -0.0017921582135 -0.0019673611983 -0.0021374282815 
-0.0022374818224 -0.0022743578172 -0.0022773169716 -0.0022514514991 -0.002186507225 -0.002094593482 -0.0020270996461 -0.0020361763614 -0.002112659294 
-0.0021795716376 -0.0021655082286 -0.0020596593443 -0.0019092888009 -0.0017956218059 -0.0017829302003 -0.0018712727774 -0.001995645651 -0.0020705044937 
-0.0020575498689 -0.0020105360134 -0.0020213506228 -0.002124223451 -0.0022566795756 -0.0022875126422 -0.0021163792504 -0.0018010172089 -0.0015180971503 
-0.0014340871461 -0.0015892227921 -0.0018579447845 -0.002062841722 -0.0021267539202 -0.0021041711305 -0.0020760328466 -0.0020779656 -0.0020642789366 
-0.0020527338438 -0.0020497403526 -0.0020705655539 -0.0021227619816 -0.0021929462898 -0.002249660028 -0.0022613380395 -0.0022083165792 -0.0020915205852 
-0.0019583070374 -0.0018900671703 -0.001927870607 -0.0020344928181 -0.0021365178443 -0.0021929350426 -0.0022109641047 -0.0022142902064 -0.0022133853287 
-0.0022023978081 -0.0021777454713 -0.0021550357728 -0.0021549615365 -0.0021672018065 -0.002148928328 -0.0020661081677 -0.0019209572876 -0.0017602887058 
-0.0016627640732 -0.0016874139618 -0.0018207060957 -0.0019769576323 -0.002048699094 -0.0019900760757 -0.0018835025956 -0.0018604635618 -0.0019761340615 
-0.0021687730812 -0.0022942377398 -0.0022298779767 -0.0020038320668 -0.0017760050687 -0.0016965399545 -0.0018039973627 -0.0020054902432 -0.0021578019415 
-0.0021972359478 -0.002161378396 -0.0021115778081 -0.0020801342281 -0.0020140268323 -0.0020116608064 -0.0020240597292 -0.0020557324822 -0.0021037297612 
-0.0021506717296 -0.0021778813101 -0.0021821204315 -0.0021674593608 -0.0021310955844 -0.0020787717637 -0.0020427748916 -0.0020477138733 -0.0020747671666 
-0.0020872320141 -0.0020751244506 -0.0020597261191 -0.0020661721465 -0.0020991077492 -0.0021417325027 -0.0021740077991 -0.0021879901477 -0.0021844599145 
-0.0021593571615 -0.0021023516934 -0.0020057487123 -0.0018757608109 -0.0017491724799 -0.0016903219791 -0.0017445480073 -0.0018885505032 -0.0020310397533 
-0.0020585888014 -0.001929559498 -0.0017505998149 -0.0016802960807 -0.0017922356426 -0.0020258837852 -0.0022341321211 -0.0022838674551 -0.0021760999755 
-0.0020324456395 -0.001976048662 -0.0020423578002 -0.0021657749327 -0.0022447450555 -0.0022348048509 -0.0021642795263 -0.002085900559 -0.0020347797362 
-0.0019613707948 -0.0019962456234 -0.0020337299773 -0.0020674725515 -0.0020906746793 -0.0020928775212 -0.0020769689209 -0.0020652312949 -0.0020763438646 
-0.0021048431454 -0.0021293059628 -0.002137326178 -0.0021274785215 -0.0020923489469 -0.0020276865275 -0.0019533953195 -0.0019077496182 -0.0019189185932 
-0.0019826463962 -0.0020667787587 -0.002135284213 -0.0021664547041 -0.0021559667249 -0.0021137628715 -0.0020560225914 -0.0019919280528 -0.0019239745748 
-0.0018674368358 -0.0018593382306 -0.0019266078675 -0.002045298486 -0.002137757271 -0.0021071927811 -0.0019220925507 -0.0016911364381 -0.0015777122879 
-0.0016681574095 -0.0019047332455 -0.0021406666738 -0.002247611672 -0.0022180804467 -0.0021467184141 -0.0021235071275 -0.0021720168938 -0.0022420163317 
-0.0022596885292 -0.0021961928899 -0.0020862306778 -0.0019906647829 -0.0019499435495 -0.0019261119453 -0.0020108085922 -0.0020749607464 -0.0021030006984 
-0.0020913406905 -0.0020449937187 -0.001988921029 -0.001961121731 -0.0019855997885 -0.002053469259 -0.0021293539382 -0.0021755256801 -0.0021694263259 
-0.0021054720416 -0.0019984006595 -0.0018876585163 -0.001823457523 -0.0018367808879 -0.0019175312212 -0.0020218915497 -0.0021013330818 -0.0021269476834 
-0.0020989507688 -0.0020449919035 -0.002001734744 -0.0019883475006 -0.0019989337308 -0.0020210296991 -0.0020573778141 -0.0021177664011 -0.0021897476214 
-0.0022277486547 -0.002167408994 -0.0019788817196 -0.0017443875776 -0.0016119931566 -0.0016684130909 -0.0018671197565 -0.0020712836515 -0.0021684146052 
-0.0021579326239 -0.002120433981 -0.0021230297963 -0.0021736969979 -0.0022215737685 -0.0022012021244 -0.0020973739956 -0.001962279352 -0.0018696211667 
-0.0018622210046 -0.0019262589976 -0.0020426738888 -0.0021148305834 -0.0021254354225 -0.0020827204697 -0.002008406834 -0.0019370640413 -0.0019069340564 
-0.0019389589763 -0.0020210675978 -0.002114782592 -0.0021782892205 -0.0021841652379 -0.0021241222714 -0.002013934518 -0.0018965023986 -0.0018255471513 
-0.0018340945392 -0.0019119252128 -0.0020119134104 -0.0020797836611 -0.0020847495307 -0.0020346658511 -0.0019707873344 -0.0019412586312 -0.0019686356438 
-0.0020375467079 -0.0021119708166 -0.0021663477685 -0.002200545786 -0.0022234205975 -0.0022287812896 -0.0021848797946 -0.0020562700171 -0.0018763721759 
-0.0017582470969 -0.0017814747497 -0.0019155202768 -0.0020507432068 -0.0021013832752 -0.0020761830107 -0.002044093358 -0.0020576115538 -0.0021132921911 
-0.0021551813166 -0.002119851833 -0.0020023267865 -0.0018664925719 -0.0017923381456 -0.0018206715914 -0.0019664149562 -0.002069443112 -0.0021129758138 
-0.0020934966963 -0.0020359525279 -0.0019687565042 -0.0019179762739 -0.0019071736278 -0.0019469797402 -0.0020236197448 -0.0021057515434 -0.0021640626736 
-0.0021795763929 -0.0021410886703 -0.0020534431582 -0.0019494989635 -0.0018785447668 -0.001874661073 -0.0019329421703 -0.0020121387855 -0.0020608576361 
-0.0020496826192 -0.0019891457702 -0.0019235865241 -0.0019030915826 -0.0019484845125 -0.0020359433108 -0.0021153696131 -0.002148662552 -0.0021380833033 
-0.0021172172809 -0.0021132080998 -0.0021159050219 -0.0020838853566 -0.0020020194804 -0.0019290491724 -0.0019315718773 -0.0020001585911 -0.0020644699633 
-0.0020697263277 -0.0020268134813 -0.0019905510168 -0.0020027189122 -0.0020558308567 -0.0020965562537 -0.0020680832645 -0.0019677953005 -0.0018561129445 
-0.0018077495971 -0.0018555709776 -0.0020238794844 -0.0020701566632 -0.0020602570364 -0.0020118284974 -0.0019586240135 -0.0019241534782 -0.0019174400158 
-0.0019401329552 -0.0019879871901 -0.0020473971209 -0.0021018712881 -0.0021418454838 -0.002159860739 -0.0021428340475 -0.0020827811034 -0.0019973417259 
-0.0019274521793 -0.001908162656 -0.0019431655793 -0.00200282503 -0.002043876639 -0.0020373563978 -0.0019881075243 -0.0019334937172 -0.0019185426814 
-0.0019601337369 -0.0020299199466 -0.0020739113589 -0.0020551292021 -0.0019879723576 -0.0019299056226 -0.0019299710577 -0.0019849803114 -0.0020440516919 
-0.0020600285255 -0.0020425680786 -0.0020371597926 -0.0020575949409 -0.0020756401562 -0.002061192039 -0.0020176681888 -0.0019812566988 -0.0019848236004 
-0.002025588954 -0.0020650054562 -0.0020593198408 -0.0020006612476 -0.0019307809521 -0.0019067264049 -0.0019495564343 -0.0020642064345 -0.0020500319033 
-0.0019998572321 -0.0019405318919 -0.0019034297418 -0.0019032999709 -0.0019347006764 -0.0019821839374 -0.0020302298808 -0.0020681922137 -0.0020946967537 
-0.0021149051033 -0.002127923098 -0.0021198780938 -0.0020757902131 -0.002003194625 -0.0019367015857 -0.0019115769373 -0.0019375183983 -0.0019940439482 