# vtk DataFile Version 4.2
vtk output
ASCII
DATASET UNSTRUCTURED_GRID
POINTS 2601 double
0 0 0 1 0 0 2 0 0 
3 0 0 4 0 0 5 0 0 
6 0 0 7 0 0 8 0 0 
9 0 0 10 0 0 11 0 0 
12 0 0 13 0 0 14 0 0 
15 0 0 16 0 0 17 0 0 
18 0 0 19 0 0 20 0 0 
21 0 0 22 0 0 23 0 0 
24 0 0 25 0 0 26 0 0 
27 0 0 28 0 0 29 0 0 
30 0 0 31 0 0 32 0 0 
33 0 0 34 0 0 35 0 0 
36 0 0 37 0 0 38 0 0 
39 0 0 40 0 0 41 0 0 
42 0 0 43 0 0 44 0 0 
45 0 0 46 0 0 47 0 0 
48 0 0 49 0 0 50 0 0 
0 1 0 1 1 0 2 1 0 
3 1 0 4 1 0 5 1 0 
6 1 0 7 1 0 8 1 0 
9 1 0 10 1 0 11 1 0 
12 1 0 13 1 0 14 1 0 
15 1 0 16 1 0 17 1 0 
18 1 0 19 1 0 20 1 0 
21 1 0 22 1 0 23 1 0 
24 1 0 25 1 0 26 1 0 
27 1 0 28 1 0 29 1 0 
30 1 0 31 1 0 32 1 0 
33 1 0 34 1 0 35 1 0 
36 1 0 37 1 0 38 1 0 
39 1 0 40 1 0 41 1 0 
42 1 0 43 1 0 44 1 0 
45 1 0 46 1 0 47 1 0 
48 1 0 49 1 0 50 1 0 
0 2 0 1 2 0 2 2 0 
3 2 0 4 2 0 5 2 0 
6 2 0 7 2 0 8 2 0 
9 2 0 10 2 0 11 2 0 
12 2 0 13 2 0 14 2 0 
15 2 0 16 2 0 17 2 0 
18 2 0 19 2 0 20 2 0 
21 2 0 22 2 0 23 2 0 
24 2 0 25 2 0 26 2 0 
27 2 0 28 2 0 29 2 0 
30 2 0 31 2 0 32 2 0 
33 2 0 34 2 0 35 2 0 
36 2 0 37 2 0 38 2 0 
39 2 0 40 2 0 41 2 0 
42 2 0 43 2 0 44 2 0 
45 2 0 46 2 0 47 2 0 
48 2 0 49 2 0 50 2 0 
0 3 0 1 3 0 2 3 0 
3 3 0 4 3 0 5 3 0 
6 3 0 7 3 0 8 3 0 
9 3 0 10 3 0 11 3 0 
12 3 0 13 3 0 14 3 0 
15 3 0 16 3 0 17 3 0 
18 3 0 19 3 0 20 3 0 
21 3 0 22 3 0 23 3 0 
24 3 0 25 3 0 26 3 0 
27 3 0 28 3 0 29 3 0 
30 3 0 31 3 0 32 3 0 
33 3 0 34 3 0 35 3 0 
36 3 0 37 3 0 38 3 0 
39 3 0 40 3 0 41 3 0 
42 3 0 43 3 0 44 3 0 
45 3 0 46 3 0 47 3 0 
48 3 0 49 3 0 50 3 0 
0 4 0 1 4 0 2 4 0 
3 4 0 4 4 0 5 4 0 
6 4 0 7 4 0 8 4 0 
9 4 0 10 4 0 11 4 0 
12 4 0 13 4 0 14 4 0 
15 4 0 16 4 0 17 4 0 
18 4 0 19 4 0 20 4 0 
21 4 0 22 4 0 23 4 0 
24 4 0 25 4 0 26 4 0 
27 4 0 28 4 0 29 4 0 
30 4 0 31 4 0 32 4 0 
33 4 0 34 4 0 35 4 0 
36 4 0 37 4 0 38 4 0 
39 4 0 40 4 0 41 4 0 
42 4 0 43 4 0 44 4 0 
45 4 0 46 4 0 47 4 0 
48 4 0 49 4 0 50 4 0 
0 5 0 1 5 0 2 5 0 
3 5 0 4 5 0 5 5 0 
6 5 0 7 5 0 8 5 0 
9 5 0 10 5 0 11 5 0 
12 5 0 13 5 0 14 5 0 
15 5 0 16 5 0 17 5 0 
18 5 0 19 5 0 20 5 0 
21 5 0 22 5 0 23 5 0 
24 5 0 25 5 0 26 5 0 
27 5 0 28 5 0 29 5 0 
30 5 0 31 5 0 32 5 0 
33 5 0 34 5 0 35 5 0 
36 5 0 37 5 0 38 5 0 
39 5 0 40 5 0 41 5 0 
42 5 0 43 5 0 44 5 0 
45 5 0 46 5 0 47 5 0 
48 5 0 49 5 0 50 5 0 
0 6 0 1 6 0 2 6 0 
3 6 0 4 6 0 5 6 0 
6 6 0 7 6 0 8 6 0 
9 6 0 10 6 0 11 6 0 
12 6 0 13 6 0 14 6 0 
15 6 0 16 6 0 17 6 0 
18 6 0 19 6 0 20 6 0 
21 6 0 22 6 0 23 6 0 
24 6 0 25 6 0 26 6 0 
27 6 0 28 6 0 29 6 0 
30 6 0 31 6 0 32 6 0 
33 6 0 34 6 0 35 6 0 
36 6 0 37 6 0 38 6 0 
39 6 0 40 6 0 41 6 0 
42 6 0 43 6 0 44 6 0 
45 6 0 46 6 0 47 6 0 
48 6 0 49 6 0 50 6 0 
0 7 0 1 7 0 2 7 0 
3 7 0 4 7 0 5 7 0 
6 7 0 7 7 0 8 7 0 
9 7 0 10 7 0 11 7 0 
12 7 0 13 7 0 14 7 0 
15 7 0 16 7 0 17 7 0 
18 7 0 19 7 0 20 7 0 
21 7 0 22 7 0 23 7 0 
24 7 0 25 7 0 26 7 0 
27 7 0 28 7 0 29 7 0 
30 7 0 31 7 0 32 7 0 
33 7 0 34 7 0 35 7 0 
36 7 0 37 7 0 38 7 0 
39 7 0 40 7 0 41 7 0 
42 7 0 43 7 0 44 7 0 
45 7 0 46 7 0 47 7 0 
48 7 0 49 7 0 50 7 0 
0 8 0 1 8 0 2 8 0 
3 8 0 4 8 0 5 8 0 
6 8 0 7 8 0 8 8 0 
9 8 0 10 8 0 11 8 0 
12 8 0 13 8 0 14 8 0 
15 8 0 16 8 0 17 8 0 
18 8 0 19 8 0 20 8 0 
21 8 0 22 8 0 23 8 0 
24 8 0 25 8 0 26 8 0 
27 8 0 28 8 0 29 8 0 
30 8 0 31 8 0 32 8 0 
33 8 0 34 8 0 35 8 0 
36 8 0 37 8 0 38 8 0 
39 8 0 40 8 0 41 8 0 
42 8 0 43 8 0 44 8 0 
45 8 0 46 8 0 47 8 0 
48 8 0 49 8 0 50 8 0 
0 9 0 1 9 0 2 9 0 
3 9 0 4 9 0 5 9 0 
6 9 0 7 9 0 8 9 0 
9 9 0 10 9 0 11 9 0 
12 9 0 13 9 0 14 9 0 
15 9 0 16 9 0 17 9 0 
18 9 0 19 9 0 20 9 0 
21 9 0 22 9 0 23 9 0 
24 9 0 25 9 0 26 9 0 
27 9 0 28 9 0 29 9 0 
30 9 0 31 9 0 32 9 0 
33 9 0 34 9 0 35 9 0 
36 9 0 37 9 0 38 9 0 
39 9 0 40 9 0 41 9 0 
42 9 0 43 9 0 44 9 0 
45 9 0 46 9 0 47 9 0 
48 9 0 49 9 0 50 9 0 
0 10 0 1 10 0 2 10 0 
3 10 0 4 10 0 5 10 0 
6 10 0 7 10 0 8 10 0 
9 10 0 10 10 0 11 10 0 
12 10 0 13 10 0 14 10 0 
15 10 0 16 10 0 17 10 0 
18 10 0 19 10 0 20 10 0 
21 10 0 22 10 0 23 10 0 
24 10 0 25 10 0 26 10 0 
27 10 0 28 10 0 29 10 0 
30 10 0 31 10 0 32 10 0 
33 10 0 34 10 0 35 10 0 
36 10 0 37 10 0 38 10 0 
39 10 0 40 10 0 41 10 0 
42 10 0 43 10 0 44 10 0 
45 10 0 46 10 0 47 10 0 
48 10 0 49 10 0 50 10 0 
0 11 0 1 11 0 2 11 0 
3 11 0 4 11 0 5 11 0 
6 11 0 7 11 0 8 11 0 
9 11 0 10 11 0 11 11 0 
12 11 0 13 11 0 14 11 0 
15 11 0 16 11 0 17 11 0 
18 11 0 19 11 0 20 11 0 
21 11 0 22 11 0 23 11 0 
24 11 0 25 11 0 26 11 0 
27 11 0 28 11 0 29 11 0 
30 11 0 31 11 0 32 11 0 
33 11 0 34 11 0 35 11 0 
36 11 0 37 11 0 38 11 0 
39 11 0 40 11 0 41 11 0 
42 11 0 43 11 0 44 11 0 
45 11 0 46 11 0 47 11 0 
48 11 0 49 11 0 50 11 0 
0 12 0 1 12 0 2 12 0 
3 12 0 4 12 0 5 12 0 
6 12 0 7 12 0 8 12 0 
9 12 0 10 12 0 11 12 0 
12 12 0 13 12 0 14 12 0 
15 12 0 16 12 0 17 12 0 
18 12 0 19 12 0 20 12 0 
21 12 0 22 12 0 23 12 0 
24 12 0 25 12 0 26 12 0 
27 12 0 28 12 0 29 12 0 
30 12 0 31 12 0 32 12 0 
33 12 0 34 12 0 35 12 0 
36 12 0 37 12 0 38 12 0 
39 12 0 40 12 0 41 12 0 
42 12 0 43 12 0 44 12 0 
45 12 0 46 12 0 47 12 0 
48 12 0 49 12 0 50 12 0 
0 13 0 1 13 0 2 13 0 
3 13 0 4 13 0 5 13 0 
6 13 0 7 13 0 8 13 0 
9 13 0 10 13 0 11 13 0 
12 13 0 13 13 0 14 13 0 
15 13 0 16 13 0 17 13 0 
18 13 0 19 13 0 20 13 0 
21 13 0 22 13 0 23 13 0 
24 13 0 25 13 0 26 13 0 
27 13 0 28 13 0 29 13 0 
30 13 0 31 13 0 32 13 0 
33 13 0 34 13 0 35 13 0 
36 13 0 37 13 0 38 13 0 
39 13 0 40 13 0 41 13 0 
42 13 0 43 13 0 44 13 0 
45 13 0 46 13 0 47 13 0 
48 13 0 49 13 0 50 13 0 
0 14 0 1 14 0 2 14 0 
3 14 0 4 14 0 5 14 0 
6 14 0 7 14 0 8 14 0 
9 14 0 10 14 0 11 14 0 
12 14 0 13 14 0 14 14 0 
15 14 0 16 14 0 17 14 0 
18 14 0 19 14 0 20 14 0 
21 14 0 22 14 0 23 14 0 
24 14 0 25 14 0 26 14 0 
27 14 0 28 14 0 29 14 0 
30 14 0 31 14 0 32 14 0 
33 14 0 34 14 0 35 14 0 
36 14 0 37 14 0 38 14 0 
39 14 0 40 14 0 41 14 0 
42 14 0 43 14 0 44 14 0 
45 14 0 46 14 0 47 14 0 
48 14 0 49 14 0 50 14 0 
0 15 0 1 15 0 2 15 0 
3 15 0 4 15 0 5 15 0 
6 15 0 7 15 0 8 15 0 
9 15 0 10 15 0 11 15 0 
12 15 0 13 15 0 14 15 0 
15 15 0 16 15 0 17 15 0 
18 15 0 19 15 0 20 15 0 
21 15 0 22 15 0 23 15 0 
24 15 0 25 15 0 26 15 0 
27 15 0 28 15 0 29 15 0 
30 15 0 31 15 0 32 15 0 
33 15 0 34 15 0 35 15 0 
36 15 0 37 15 0 38 15 0 
39 15 0 40 15 0 41 15 0 
42 15 0 43 15 0 44 15 0 
45 15 0 46 15 0 47 15 0 
48 15 0 49 15 0 50 15 0 
0 16 0 1 16 0 2 16 0 
3 16 0 4 16 0 5 16 0 
6 16 0 7 16 0 8 16 0 
9 16 0 10 16 0 11 16 0 
12 16 0 13 16 0 14 16 0 
15 16 0 16 16 0 17 16 0 
18 16 0 19 16 0 20 16 0 
21 16 0 22 16 0 23 16 0 
24 16 0 25 16 0 26 16 0 
27 16 0 28 16 0 29 16 0 
30 16 0 31 16 0 32 16 0 
33 16 0 34 16 0 35 16 0 
36 16 0 37 16 0 38 16 0 
39 16 0 40 16 0 41 16 0 
42 16 0 43 16 0 44 16 0 
45 16 0 46 16 0 47 16 0 
48 16 0 49 16 0 50 16 0 
0 17 0 1 17 0 2 17 0 
3 17 0 4 17 0 5 17 0 
6 17 0 7 17 0 8 17 0 
9 17 0 10 17 0 11 17 0 
12 17 0 13 17 0 14 17 0 
15 17 0 16 17 0 17 17 0 
18 17 0 19 17 0 20 17 0 
21 17 0 22 17 0 23 17 0 
24 17 0 25 17 0 26 17 0 
27 17 0 28 17 0 29 17 0 
30 17 0 31 17 0 32 17 0 
33 17 0 34 17 0 35 17 0 
36 17 0 37 17 0 38 17 0 
39 17 0 40 17 0 41 17 0 
42 17 0 43 17 0 44 17 0 
45 17 0 46 17 0 47 17 0 
48 17 0 49 17 0 50 17 0 
0 18 0 1 18 0 2 18 0 
3 18 0 4 18 0 5 18 0 
6 18 0 7 18 0 8 18 0 
9 18 0 10 18 0 11 18 0 
12 18 0 13 18 0 14 18 0 
15 18 0 16 18 0 17 18 0 
18 18 0 19 18 0 20 18 0 
21 18 0 22 18 0 23 18 0 
24 18 0 25 18 0 26 18 0 
27 18 0 28 18 0 29 18 0 
30 18 0 31 18 0 32 18 0 
33 18 0 34 18 0 35 18 0 
36 18 0 37 18 0 38 18 0 
39 18 0 40 18 0 41 18 0 
42 18 0 43 18 0 44 18 0 
45 18 0 46 18 0 47 18 0 
48 18 0 49 18 0 50 18 0 
0 19 0 1 19 0 2 19 0 
3 19 0 4 19 0 5 19 0 
6 19 0 7 19 0 8 19 0 
9 19 0 10 19 0 11 19 0 
12 19 0 13 19 0 14 19 0 
15 19 0 16 19 0 17 19 0 
18 19 0 19 19 0 20 19 0 
21 19 0 22 19 0 23 19 0 
24 19 0 25 19 0 26 19 0 
27 19 0 28 19 0 29 19 0 
30 19 0 31 19 0 32 19 0 
33 19 0 34 19 0 35 19 0 
36 19 0 37 19 0 38 19 0 
39 19 0 40 19 0 41 19 0 
42 19 0 43 19 0 44 19 0 
45 19 0 46 19 0 47 19 0 
48 19 0 49 19 0 50 19 0 
0 20 0 1 20 0 2 20 0 
3 20 0 4 20 0 5 20 0 
6 20 0 7 20 0 8 20 0 
9 20 0 10 20 0 11 20 0 
12 20 0 13 20 0 14 20 0 
15 20 0 16 20 0 17 20 0 
18 20 0 19 20 0 20 20 0 
21 20 0 22 20 0 23 20 0 
24 20 0 25 20 0 26 20 0 
27 20 0 28 20 0 29 20 0 
30 20 0 31 20 0 32 20 0 
33 20 0 34 20 0 35 20 0 
36 20 0 37 20 0 38 20 0 
39 20 0 40 20 0 41 20 0 
42 20 0 43 20 0 44 20 0 
45 20 0 46 20 0 47 20 0 
48 20 0 49 20 0 50 20 0 
0 21 0 1 21 0 2 21 0 
3 21 0 4 21 0 5 21 0 
6 21 0 7 21 0 8 21 0 
9 21 0 10 21 0 11 21 0 
12 21 0 13 21 0 14 21 0 
15 21 0 16 21 0 17 21 0 
18 21 0 19 21 0 20 21 0 
21 21 0 22 21 0 23 21 0 
24 21 0 25 21 0 26 21 0 
27 21 0 28 21 0 29 21 0 
30 21 0 31 21 0 32 21 0 
33 21 0 34 21 0 35 21 0 
36 21 0 37 21 0 38 21 0 
39 21 0 40 21 0 41 21 0 
42 21 0 43 21 0 44 21 0 
45 21 0 46 21 0 47 21 0 
48 21 0 49 21 0 50 21 0 
0 22 0 1 22 0 2 22 0 
3 22 0 4 22 0 5 22 0 
6 22 0 7 22 0 8 22 0 
9 22 0 10 22 0 11 22 0 
12 22 0 13 22 0 14 22 0 
15 22 0 16 22 0 17 22 0 
18 22 0 19 22 0 20 22 0 
21 22 0 22 22 0 23 22 0 
24 22 0 25 22 0 26 22 0 
27 22 0 28 22 0 29 22 0 
30 22 0 31 22 0 32 22 0 
33 22 0 34 22 0 35 22 0 
36 22 0 37 22 0 38 22 0 
39 22 0 40 22 0 41 22 0 
42 22 0 43 22 0 44 22 0 
45 22 0 46 22 0 47 22 0 
48 22 0 49 22 0 50 22 0 
0 23 0 1 23 0 2 23 0 
3 23 0 4 23 0 5 23 0 
6 23 0 7 23 0 8 23 0 
9 23 0 10 23 0 11 23 0 
12 23 0 13 23 0 14 23 0 
15 23 0 16 23 0 17 23 0 
18 23 0 19 23 0 20 23 0 
21 23 0 22 23 0 23 23 0 
24 23 0 25 23 0 26 23 0 
27 23 0 28 23 0 29 23 0 
30 23 0 31 23 0 32 23 0 
33 23 0 34 23 0 35 23 0 
36 23 0 37 23 0 38 23 0 
39 23 0 40 23 0 41 23 0 
42 23 0 43 23 0 44 23 0 
45 23 0 46 23 0 47 23 0 
48 23 0 49 23 0 50 23 0 
0 24 0 1 24 0 2 24 0 
3 24 0 4 24 0 5 24 0 
6 24 0 7 24 0 8 24 0 
9 24 0 10 24 0 11 24 0 
12 24 0 13 24 0 14 24 0 
15 24 0 16 24 0 17 24 0 
18 24 0 19 24 0 20 24 0 
21 24 0 22 24 0 23 24 0 
24 24 0 25 24 0 26 24 0 
27 24 0 28 24 0 29 24 0 
30 24 0 31 24 0 32 24 0 
33 24 0 34 24 0 35 24 0 
36 24 0 37 24 0 38 24 0 
39 24 0 40 24 0 41 24 0 
42 24 0 43 24 0 44 24 0 
45 24 0 46 24 0 47 24 0 
48 24 0 49 24 0 50 24 0 
0 25 0 1 25 0 2 25 0 
3 25 0 4 25 0 5 25 0 
[...]
CELL_DATA 2500
SCALARS $\mu_{AB} double
LOOKUP_TABLE default
-0.0023046057972 -0.0022884522554 -0.0021735765111 -0.0020265368768 -0.0019377356361 -0.0019427185658 -0.0020004144348 -0.0020335687976 -0.0020134328935 
-0.0019916318742 -0.0020297132175 -0.0021275089908 -0.0022046787123 -0.0021382473797 -0.0018882475098 -0.0015893369367 -0.001447993252 -0.0015734994546 
-0.0018789789537 -0.002145611554 -0.0021995165013 -0.0020603728519 -0.0018781483891 -0.0018063595667 -0.0019003652118 -0.0020791465149 -0.002194219453 
-0.002181903147 -0.0021042985951 -0.0020423851246 -0.0020255563396 -0.0020403934489 -0.0020642851039 -0.0020782517247 -0.0020575719738 -0.0019835236925 
-0.0018815746315 -0.0018266710953 -0.0018827605008 -0.0020393267932 -0.0022090449189 -0.002293794634 -0.0022700704534 -0.0021797879296 -0.0020749569815 
-0.001998691953 -0.0019805159239 -0.0020283799848 -0.0021250558194 -0.0022335215735 -0.0022511324384 -0.0022706653193 -0.0021956474542 -0.0020726710603 
-0.0019838478444 -0.0019705733477 -0.0020027438895 -0.0020151128658 -0.0019867059275 -0.0019679427161 -0.0020158041901 -0.0021273782044 -0.0022251759111 
-0.0021968817522 -0.0020030352635 -0.0017542797062 -0.0016261925106 -0.0017134450113 -0.0019505983886 -0.0021659429569 -0.0022394262456 -0.0021831318954 
-0.002088394867 -0.0020542955587 -0.0021092044574 -0.0021779130571 -0.0021605923487 -0.0020536680327 -0.0019427520542 -0.0019065351948 -0.0019590155121 
-0.002057154314 -0.0021429347248 -0.0021712111505 -0.0021093221404 -0.0019485888307 -0.0017423010346 -0.0016027581645 -0.0016259413019 -0.0018105196165 
-0.0020590678126 -0.002241829449 -0.0022867994997 -0.0022214148906 -0.0021091483484 -0.0020050736434 -0.0019503777108 -0.0019664620929 -0.0020471324019 
-0.0021590078877 -0.0021414481719 -0.002155967496 -0.0020991932808 -0.0020141576314 -0.0019683228723 -0.001989094188 -0.0020401797259 -0.0020584954357 
-0.0020282683461 -0.0020032982668 -0.0020435483475 -0.0021509134445 -0.0022543159549 -0.0022526155166 -0.0021069435111 -0.0018977012451 -0.0017640398078 
-0.0017889968752 -0.0019332046484 -0.0020844949029 -0.0021695062767 -0.002190399884 -0.0021885732801 -0.0022039182375 -0.0022326912292 -0.0022154557663 
-0.0021040023432 -0.0019331382551 -0.0017981720261 -0.0017761966673 -0.0018703222495 -0.0020172824905 -0.0021393934768 -0.0021834242046 -0.0021175118001 
-0.0019295330386 -0.0016740797706 -0.0014791287407 -0.0014636286872 -0.0016404348976 -0.0019104387581 -0.0021467691528 -0.002262596532 -0.0022543718733 
-0.0021727374177 -0.0020700870349 -0.0019898458088 -0.0019631606356 -0.0019980653121 -0.0020726160698 -0.0020485222708 -0.0020208730136 -0.0019520487844 
-0.0018946078554 -0.0019047476179 -0.0019860835181 -0.0020814206761 -0.0021169589466 -0.002076516748 -0.002024372212 -0.002037702278 -0.0021333573031 
-0.0022457671087 -0.002272656252 -0.0021674507942 -0.0019854861234 -0.0018359114841 -0.0017941161767 -0.0018477934906 -0.0019316300339 -0.0020033982744 
-0.0020669270347 -0.0021399712987 -0.0022183865051 -0.0022637869342 -0.0022235063885 -0.0020809756245 -0.0018910138455 -0.0017524253824 -0.0017385594939 
-0.001843964365 -0.0019969899203 -0.0021210551553 -0.0021759911905 -0.0021399819593 -0.0019903913443 -0.0017549175631 -0.0015502186122 -0.0014970944319 
-0.0016202668239 -0.0018401754365 -0.0020509595624 -0.0021879059359 -0.0022390222201 -0.0022229750435 -0.0021638289926 -0.0020904535071 -0.0020357091764 
-0.002020023383 -0.0020356911528 -0.0020056575073 -0.0019247736012 -0.0018312684547 -0.0017874488221 -0.0018408753085 -0.0019732703321 -0.0021037053895 
-0.0021402185329 -0.0020624320143 -0.0019554165549 -0.0019286875751 -0.0020212502931 -0.0021695399022 -0.0022529790189 -0.0022033288816 -0.0020581726392 
-0.0019082286293 -0.001822222585 -0.0018046248143 -0.0018192187521 -0.0018469593377 -0.0019038174365 -0.0020071543295 -0.0021367085034 -0.0022291025711 
-0.0022204244983 -0.0021018121779 -0.0019356781126 -0.0018189665498 -0.001815886137 -0.0019133367086 -0.0020420620656 -0.0021417723782 -0.0021942273114 
-0.0021922157115 -0.0021127772732 -0.0019506596253 -0.001777266919 -0.0016947338675 -0.0017316137199 -0.0018391718159 -0.0019521585161 -0.0020441320769 
-0.002120451742 -0.0021794846306 -0.0022039680484 -0.0021848322688 -0.0021388792314 -0.0020930470524 -0.0020548797682 -0.0020066372465 -0.0018983236245 
-0.0017944308786 -0.0017596282443 -0.0018346906632 -0.0019880796656 -0.0021230356427 -0.0021326055402 -0.001997604723 -0.0018291857698 -0.0017667023254 
-0.0018664490584 -0.0020631603537 -0.002220079373 -0.0022448772471 -0.0021586211637 -0.0020394254169 -0.0019462458012 -0.0018871202457 -0.0018415402524 
-0.0018079074065 -0.0018168588537 -0.0018969935436 -0.0020332292108 -0.0021579801171 -0.0021935686005 -0.0021206013261 -0.0019984875542 -0.0019192897156 
-0.0019370332165 -0.0020301941307 -0.0021333015378 -0.0022036155796 -0.0022409150156 -0.0022506860786 -0.0022206542023 -0.0021371423664 -0.0020202592605 
-0.0019236252345 -0.0018728181214 -0.0018498918526 -0.0018379325216 -0.0018516781565 -0.0019152961751 -0.002021742047 -0.0021289949557 -0.0021904083927 
-0.0021903912639 -0.0021492909572 -0.0020885629408 -0.0020156545485 -0.0019312184337 -0.001848869988 -0.0018274262578 -0.0019046548536 -0.0020493882514 
-0.0021647893671 -0.0021420957275 -0.0019681857596 -0.0017653237398 -0.0016830784651 -0.0017867525057 -0.0020096122785 -0.002213254137 -0.002297569508 
-0.0022720503564 -0.0022047336093 -0.0021408590859 -0.0020789833085 -0.0020005444371 -0.0019130351028 -0.0018572806732 -0.0018764694993 -0.0019726464962 
-0.0020874836011 -0.0021371364506 -0.002086874354 -0.0019899554636 -0.0019394365254 -0.0019868395327 -0.0021021132209 -0.002211046075 -0.0022707645982 
-0.002287776351 -0.0022774510896 -0.0022441734397 -0.0021927685119 -0.0021308219292 -0.0020579941602 -0.0019685893335 -0.0018619230891 -0.0017584065202 
-0.0017036947822 -0.0017367567084 -0.0018510465752 -0.0019938838638 -0.0021011096834 -0.0021382605151 -0.0021198827302 -0.0020768077377 -0.0019963905858 
-0.0019805429042 -0.0019474815571 -0.0019425733589 -0.0020073272151 -0.0021267752239 -0.0022221510194 -0.0021958537966 -0.002031531072 -0.0018396002966 
-0.0017596606931 -0.0018526231331 -0.0020586064655 -0.0022497737454 -0.0023334047413 -0.0023250871802 -0.00229913219 -0.002291337543 -0.0022734218884 
-0.0022055449105 -0.0020919795268 -0.0019818346711 -0.0019346401406 -0.0019733901374 -0.0020511307784 -0.0020791766506 -0.0020104278092 -0.0018969505099 
-0.0018428776034 -0.0019098495266 -0.0020668849111 -0.0022203239905 -0.0022983149529 -0.0022947498308 -0.0022345651389 -0.0021512788593 -0.0020883673814 
-0.002068711374 -0.0020636796318 -0.0020207322188 -0.0019206924127 -0.0017964054356 -0.0017104273782 -0.0017117889629 -0.0017987894156 -0.0019176724197 
-0.0020008360895 -0.0020186997635 -0.0020022058999 -0.0019945903584 -0.0019507814054 -0.0020116052092 -0.0020267985114 -0.0020242961096 -0.0020592656819 
-0.0021491934386 -0.0022450760961 -0.0022597955773 -0.0021569925579 -0.0020151993423 -0.0019533483437 -0.0020230056575 -0.0021727040644 -0.0022850849839 
-0.0022815305352 -0.0022104401731 -0.002184706689 -0.0022463381737 -0.0023277132922 -0.0023265086081 -0.0022218914239 -0.0020808029867 -0.0019933373902 
-0.0020010336826 -0.0020573674506 -0.0020627040841 -0.0019611058883 -0.0018082497518 -0.0017224975887 -0.0017820496152 -0.0019621900075 -0.0021587510959 
-0.0022645018172 -0.0022393986034 -0.002116702769 -0.0019734671295 -0.0018945982162 -0.0019168498154 -0.0019991745508 -0.002057862185 -0.0020409576719 
-0.0019658683324 -0.0018939762733 -0.001876360511 -0.0019151715293 -0.0019634455663 -0.0019635043374 -0.0019091311715 -0.0018626097106 -0.0018808412386 
-0.0019168893851 -0.0020258790151 -0.0020531200583 -0.0020159253756 -0.0019993936401 -0.0020627863215 -0.0021817649674 -0.0022668147105 -0.0022502395141 
-0.0021697719147 -0.0021231042577 -0.0021610503242 -0.0022366343572 -0.0022309998263 -0.0020853030773 -0.0019100229177 -0.0018575251519 -0.0019713172946 
-0.0021655284488 -0.0022628193221 -0.0021811430217 -0.0020276184105 -0.0019461203025 -0.0019872416998 -0.0020827314226 -0.0021086431602 -0.0020011297065 
-0.0018219052754 -0.0016996742275 -0.001726680558 -0.0018895377444 -0.0020855708405 -0.0021935142933 -0.0021459037642 -0.001979214326 -0.001803160266 
-0.0017264790272 -0.0017923530964 -0.0019505785398 -0.0021019778272 -0.0021770764004 -0.0021774842983 -0.0021509847492 -0.0021368431481 -0.0021331686797 
-0.0020998016043 -0.0019990991687 -0.0018588511653 -0.00177090613 -0.0018000664349 -0.0019257687251 -0.0020422241191 -0.0020360228585 -0.0019329776633 
-0.0018589367063 -0.001904751182 -0.0020531269208 -0.0022002357722 -0.0022437843049 -0.0021858346743 -0.0021207122177 -0.0021208494654 -0.0021515443984 
-0.0020743749324 -0.0018351039996 -0.0015842381006 -0.00150343961 -0.001648608076 -0.0019013335208 -0.0020401598798 -0.0019421998586 -0.0017753685099 
-0.0017374897137 -0.0018757627531 -0.0020830628539 -0.0021939299243 -0.0021306525811 -0.0019605890025 -0.0018186172852 -0.0018013325239 -0.0019096066628 
-0.0020575821651 -0.0021337244498 -0.0020699571381 -0.0018997763412 -0.0017349964338 -0.0016848026223 -0.0017865898393 -0.0019814638122 -0.0021624542613 
-0.0022576614033 -0.0022832904454 -0.0023000350331 -0.0023251045214 -0.0023210898176 -0.0022407805283 -0.002070040047 -0.0018709939623 -0.001755411698 
-0.001788707933 -0.0019745688871 -0.0020717088423 -0.0020165322216 -0.001856927354 -0.0017446007203 -0.0017830460193 -0.0019505351102 -0.002121718931 
-0.0021614934809 -0.0020520547459 -0.001918676947 -0.001882404727 -0.0019342927032 -0.0019113061801 -0.001697685189 -0.0014367469041 -0.0013421193339 
-0.0014929357563 -0.0017364494646 -0.0018210575207 -0.001653261973 -0.0014577718881 -0.0014626500756 -0.0017075495879 -0.0020445570165 -0.0022713855925 
-0.002288774327 -0.0021610994705 -0.0020200605192 -0.0019625611967 -0.0020024627051 -0.0020810977689 -0.0021139637136 -0.0020493343436 -0.0019148478702 
-0.0018015667681 -0.0017954753376 -0.0019145657212 -0.0020897539229 -0.0022039007034 -0.0021954526899 -0.0021383001402 -0.0021558487012 -0.0022669553107 
-0.0023537839845 -0.0023067442362 -0.0021280347208 -0.001915964938 -0.0017977287988 -0.0018360928872 -0.0020373556667 -0.0021126366563 -0.0020345774109 
-0.0018628928666 -0.0017474974244 -0.0017865070967 -0.0019509830362 -0.002100449246 -0.0020754258102 -0.0018635170991 -0.0016364381312 -0.0015672812764 
-0.0016796751412 -0.0018080812034 -0.0017444570741 -0.0015653766475 -0.0014937621669 -0.0016075162451 -0.001775245186 -0.0017535080872 -0.0015081185788 
-0.0012827678841 -0.0013142718179 -0.0016238078958 -0.0020305668552 -0.0023237035651 -0.0023970744552 -0.0023109537123 -0.0021806783117 -0.0020985008698 
-0.0020909428248 -0.0021213596326 -0.0021293117258 -0.0020803320099 -0.0019995664246 -0.0019536149219 -0.001993618749 -0.0021080744003 -0.0022059290323 
-0.0021578045907 -0.0019450688123 -0.0017345342495 -0.0017084789448 -0.0019061682647 -0.0021714648627 -0.0022616930247 -0.0021454380388 -0.001963139298 
-0.0018626546717 -0.0019073358544 -0.0020900532321 -0.0021490735957 -0.0020850865263 -0.0019515392177 -0.0018697637653 -0.001917112089 -0.0020593405836 
-0.0021567803563 -0.0020477741781 -0.0017419777953 -0.0014361997945 -0.0013374354839 -0.0015027245175 -0.0017758206892 -0.0019192581111 -0.001883126246 
-0.00185328221 -0.0019208637022 -0.0019871113848 -0.001870531951 -0.0015943744145 -0.0013766083561 -0.0014152689414 -0.0017161415097 -0.0020999993206 
-0.0023567726422 -0.0024011015719 -0.0023001535167 -0.0021656127099 -0.0020881053255 -0.0020901561589 -0.0021308066718 -0.0021515853714 -0.0021277981577 
-0.0020910126543 -0.002098437514 -0.0021744467446 -0.002273060243 -0.0022716155549 -0.0020391859785 -0.0016277679023 -0.0012648558156 -0.0011898169906 
-0.0014532954159 -0.0018736732549 -0.0021432340858 -0.0021365459071 -0.0020095753066 -0.0019340962636 -0.0019787099854 -0.0021186918231 -0.0021556679775 
-0.0021191003356 -0.0020510216488 -0.0020272200111 -0.0020925224789 -0.0022093737667 -0.0022575067952 -0.0021037519115 -0.0017663268269 -0.0014366288044 
-0.0013219398682 -0.0014963748928 -0.0018260043853 -0.0020956260792 -0.0021924947272 -0.0022080992317 -0.0022345517672 -0.0022253095622 -0.0020872173573 
-0.0018509486908 -0.0016768036849 -0.0017067144566 -0.0019388308682 -0.0022106211887 -0.0023365884307 -0.0022706905245 -0.0020922784142 -0.0019334758447 
-0.0018904427521 -0.0019639495053 -0.0020791354418 -0.0021492457169 -0.0021453577189 -0.0021183419525 -0.0021456583359 -0.0022491865416 -0.0023555853147 
-0.002310299993 -0.0019792365691 -0.0014656682892 -0.0010028644595 -0.00088186173663 -0.0011910220554 -0.0016860179748 -0.0020597480162 -0.0021460520078 
-0.0020728343221 -0.0020148903878 -0.0020434350558 -0.0021128047837 -0.0021188274282 -0.0021012716446 -0.0020915715689 -0.0021254624754 -0.0022117439397 
-0.0023093491562 -0.0023359874174 -0.0022081083981 -0.001924585611 -0.001633691926 -0.0015223004277 -0.0016604272278 -0.0019469689857 -0.0022006205725 
-0.0023239885835 -0.0023559169628 -0.0023605954994 -0.0023391788441 -0.0022560907236 -0.0021154871367 -0.002004336164 -0.0020188071079 -0.0021483971524 
-0.0022596171516 -0.0022289516753 -0.0020415632981 -0.0017870962532 -0.0016118000165 -0.0016161418244 -0.0017827983502 -0.0019936669265 -0.0021154598614 
-0.0020972913853 -0.0020246208931 -0.0020303098286 -0.002160131388 -0.002328977999 -0.0023508204235 -0.0020645968218 -0.0015727490729 -0.0011346235023 
-0.0010043460707 -0.0012697141183 -0.0017318684559 -0.0020969279406 -0.0022058064573 -0.0021566558694 -0.0020967773694 -0.0020897832255 -0.0020683064613 
-0.0020545232688 -0.0020509331715 -0.0020764145575 -0.0021412448714 -0.0022304635086 -0.0023062863421 -0.0023295919768 -0.0022676409165 -0.0021033976194 
-0.0019044801002 -0.0018121643661 -0.0018907144109 -0.0020672750181 -0.0022103492744 -0.0022644381694 -0.0022662893452 -0.0022679827244 -0.0022809209911 
-0.0022800070565 -0.0022467702909 -0.0022074010962 -0.0022077549466 -0.0022372323766 -0.0022195752157 -0.0020887136719 -0.0018418925435 -0.0015645805485 
-0.0014023249809 -0.0014588020805 -0.001696693746 -0.0019620457777 -0.0020828248901 -0.0019865380164 -0.0018117508603 -0.0017603944774 -0.0019074538966 
-0.0021709649588 -0.0023460163615 -0.0022422264564 -0.0018960866967 -0.0015603114047 -0.0014531776825 -0.0016307088356 -0.0019693150786 -0.0022273156101 
-0.0022880439353 -0.0022240679592 -0.0021404092382 -0.0020900714789 -0.0019972484772 -0.0019997235835 -0.0020187069126 -0.0020601774506 -0.0021208876745 
-0.0021786770201 -0.0022122777819 -0.0022239121939 -0.0022185914476 -0.0021788691544 -0.0021031670568 -0.0020526478543 -0.0020744059011 -0.0021260108785 
-0.0021340346135 -0.0020884123616 -0.0020427191524 -0.0020499760213 -0.0021133334067 -0.0021913237315 -0.0022422408402 -0.0022569545723 -0.0022490793259 
-0.0022198731062 -0.0021476290135 -0.0020040730838 -0.0017854328831 -0.0015587078359 -0.0014519249857 -0.001549896882 -0.001801532875 -0.00204584293 
-0.0020915348654 -0.0018719333913 -0.0015768874351 -0.0014520065383 -0.0016023981312 -0.0019383351405 -0.0022534748594 -0.00234641272 -0.002207085548 
-0.0020072828423 -0.0019309449643 -0.0020321547746 -0.0022204759974 -0.0023370018697 -0.0023173791786 -0.0022087235297 -0.0020915037963 -0.002020103745 
-0.0019210557621 -0.0019817060614 -0.0020377579851 -0.0020827108693 -0.0021094117517 -0.0021038656997 -0.0020743975093 -0.0020594051105 -0.0020851615697 
-0.0021352114908 -0.0021711150246 -0.0021810744318 -0.0021734951936 -0.0021293183911 -0.002026499011 -0.0018951889273 -0.0018090570335 -0.0018252932634 
-0.0019362073559 -0.0020780448621 -0.0021843118172 -0.0022245566294 -0.0022038505051 -0.002146409203 -0.0020747744793 -0.0019874844822 -0.0018716233971 
-0.0017565131258 -0.0017277287668 -0.0018414382321 -0.0020485188872 -0.0022080042339 -0.0021515156696 -0.00183644773 -0.0014596425938 -0.0012709392082 
-0.0014071092806 -0.0017678441019 -0.0021351139547 -0.0023189777836 -0.0023019180695 -0.0022172248698 -0.0021854812737 -0.0022433775957 -0.0023279360452 
-0.0023403760628 -0.0022404605625 -0.0020762392325 -0.0019388194434 -0.0018897756396 -0.0018640980466 -0.0020013218301 -0.0020980065413 -0.0021352974685 
-0.0021118739209 -0.0020358624961 -0.0019472074324 -0.0019054945375 -0.0019447205786 -0.0020462999124 -0.0021549720351 -0.0022198573795 -0.0022147894374 
-0.0021271350851 -0.0019662939245 -0.001787878521 -0.0016781523551 -0.0016981250196 -0.0018342372686 -0.0020078230938 -0.0021331623129 -0.002166205217 
-0.0021170617503 -0.0020379545239 -0.0019857740664 -0.0019782562695 -0.0019914710943 -0.0020065025789 -0.0020492728153 -0.0021489564673 -0.0022742701199 
-0.0023384153006 -0.0022344064388 -0.0019167674647 -0.0015378287855 -0.0013302502142 -0.0014267593756 -0.0017462891509 -0.0020712274401 -0.0022294207967 
-0.002224214418 -0.0021777266706 -0.002177662059 -0.0022355241517 -0.0022881366878 -0.0022471695111 -0.002087732429 -0.001885362329 -0.0017514881762 
-0.0017524370777 -0.001858262575 -0.0020438108682 -0.0021539379472 -0.0021656658267 -0.0020969007616 -0.001981143335 -0.0018702927032 -0.0018227190332 
-0.0018698152696 -0.0019908665007 -0.0021269327438 -0.0022192881026 -0.0022324146323 -0.0021517437004 -0.001990956851 -0.0018093173612 -0.0016938849648 
-0.0017056389363 -0.0018324598619 -0.0019953218197 -0.0021016416221 -0.0021024486645 -0.0020175167071 -0.0019194209087 -0.0018839425008 -0.0019378904136 
-0.0020470833085 -0.0021545350951 -0.0022313295062 -0.0022847190922 -0.0023232407488 -0.0023338464033 -0.0022672273252 -0.0020583337996 -0.0017663759607 
-0.0015862082203 -0.0016353525049 -0.0018580155622 -0.0020732206305 -0.0021463411789 -0.0021029866999 -0.0020511258641 -0.0020625936022 -0.0021334768792 
-0.0021887319586 -0.0021338405796 -0.0019556404026 -0.0017488108096 -0.001636618715 -0.0016864559258 -0.0019207505106 -0.0020855015379 -0.0021509951016 
-0.0021168334292 -0.0020282524671 -0.0019266759729 -0.0018472565236 -0.0018263351108 -0.0018833060076 -0.001997735809 -0.0021203370917 -0.0022077753356 
-0.0022359147672 -0.0021884773584 -0.0020658976051 -0.0019117693567 -0.0018022004116 -0.0017945747465 -0.0018844209563 -0.0020062696607 -0.0020770060026 
-0.0020505104891 -0.0019478147937 -0.0018440597445 -0.0018192023643 -0.0019008330202 -0.0020440429535 -0.0021674178787 -0.0022133734689 -0.0021898131741 
-0.0021544601353 -0.00215411522 -0.002172121454 -0.00213243659 -0.0020013677463 -0.0018858660812 -0.0018965644113 -0.0020089459351 -0.0021035386828 
-0.0020983448161 -0.0020208240621 -0.0019568544255 -0.0019671141988 -0.0020427842483 -0.0021079891555 -0.0020718354568 -0.0019216626857 -0.0017479042888 
-0.0016694611342 -0.0017436594755 -0.0020183442544 -0.0020936282671 -0.0020751769088 -0.0019979649979 -0.0019181794873 -0.0018680148174 -0.0018557489229 
-0.0018841064803 -0.0019521258832 -0.002041913637 -0.0021259618716 -0.0021881893237 -0.0022197137901 -0.0022033187452 -0.0021244091364 -0.0020041511362 
-0.0019021876603 -0.0018723391108 -0.0019214592085 -0.002005400713 -0.0020589499191 -0.0020378269149 -0.0019511367436 -0.0018616587103 -0.0018433459658 
-0.0019204732126 -0.0020416673133 -0.0021144070313 -0.0020758545296 -0.0019553515315 -0.0018582295236 -0.0018677095309 -0.0019736215684 -0.0020846870004 
-0.0021154037889 -0.0020841738852 -0.0020714446064 -0.0020961393821 -0.0021119130282 -0.002076445201 -0.0019987836405 -0.0019354026272 -0.0019367091949 
-0.0020005497147 -0.0020697981092 -0.002072307042 -0.0019866028302 -0.0018749696035 -0.0018316944851 -0.0018971596373 -0.0020872535341 -0.00206735712 
-0.0019879031361 -0.001894839325 -0.001838745875 -0.0018404078115 -0.0018871183166 -0.0019541066516 -0.0020221492566 -0.0020791837349 -0.0021223863955 
-0.0021567399168 -0.0021802520296 -0.0021741776154 -0.0021168126049 -0.0020170279879 -0.0019240089281 -0.0018883489862 -0.0019235740133 -0.0020004267733 