# vtk DataFile Version 4.2
vtk output
ASCII
DATASET UNSTRUCTURED_GRID
POINTS 2601 double
0 0 0 1 0 0 2 0 0 
3 0 0 4 0 0 5 0 0 
6 0 0 7 0 0 8 0 0 
9 0 0 10 0 0 11 0 0 
12 0 0 13 0 0 14 0 0 
15 0 0 16 0 0 17 0 0 
18 0 0 19 0 0 20 0 0 
21 0 0 22 0 0 23 0 0 
24 0 0 25 0 0 26 0 0 
27 0 0 28 0 0 29 0 0 
30 0 0 31 0 0 32 0 0 
33 0 0 34 0 0 35 0 0 
36 0 0 37 0 0 38 0 0 
39 0 0 40 0 0 41 0 0 
42 0 0 43 0 0 44 0 0 
45 0 0 46 0 0 47 0 0 
48 0 0 49 0 0 50 0 0 
0 1 0 1 1 0 2 1 0 
3 1 0 4 1 0 5 1 0 
6 1 0 7 1 0 8 1 0 
9 1 0 10 1 0 11 1 0 
12 1 0 13 1 0 14 1 0 
15 1 0 16 1 0 17 1 0 
18 1 0 19 1 0 20 1 0 
21 1 0 22 1 0 23 1 0 
24 1 0 25 1 0 26 1 0 
27 1 0 28 1 0 29 1 0 
30 1 0 31 1 0 32 1 0 
33 1 0 34 1 0 35 1 0 
36 1 0 37 1 0 38 1 0 
39 1 0 40 1 0 41 1 0 
42 1 0 43 1 0 44 1 0 
45 1 0 46 1 0 47 1 0 
48 1 0 49 1 0 50 1 0 
0 2 0 1 2 0 2 2 0 
3 2 0 4 2 0 5 2 0 
6 2 0 7 2 0 8 2 0 
9 2 0 10 2 0 11 2 0 
12 2 0 13 2 0 14 2 0 
15 2 0 16 2 0 17 2 0 
18 2 0 19 2 0 20 2 0 
21 2 0 22 2 0 23 2 0 
24 2 0 25 2 0 26 2 0 
27 2 0 28 2 0 29 2 0 
30 2 0 31 2 0 32 2 0 
33 2 0 34 2 0 35 2 0 
36 2 0 37 2 0 38 2 0 
39 2 0 40 2 0 41 2 0 
42 2 0 43 2 0 44 2 0 
45 2 0 46 2 0 47 2 0 
48 2 0 49 2 0 50 2 0 
0 3 0 1 3 0 2 3 0 
3 3 0 4 3 0 5 3 0 
6 3 0 7 3 0 8 3 0 
9 3 0 10 3 0 11 3 0 
12 3 0 13 3 0 14 3 0 
15 3 0 16 3 0 17 3 0 
18 3 0 19 3 0 20 3 0 
21 3 0 22 3 0 23 3 0 
24 3 0 25 3 0 26 3 0 
27 3 0 28 3 0 29 3 0 
30 3 0 31 3 0 32 3 0 
33 3 0 34 3 0 35 3 0 
36 3 0 37 3 0 38 3 0 
39 3 0 40 3 0 41 3 0 
42 3 0 43 3 0 44 3 0 
45 3 0 46 3 0 47 3 0 
48 3 0 49 3 0 50 3 0 
0 4 0 1 4 0 2 4 0 
3 4 0 4 4 0 5 4 0 
6 4 0 7 4 0 8 4 0 
9 4 0 10 4 0 11 4 0 
12 4 0 13 4 0 14 4 0 
15 4 0 16 4 0 17 4 0 
18 4 0 19 4 0 20 4 0 
21 4 0 22 4 0 23 4 0 
24 4 0 25 4 0 26 4 0 
27 4 0 28 4 0 29 4 0 
30 4 0 31 4 0 32 4 0 
33 4 0 34 4 0 35 4 0 
36 4 0 37 4 0 38 4 0 
39 4 0 40 4 0 41 4 0 
42 4 0 43 4 0 44 4 0 
45 4 0 46 4 0 47 4 0 
48 4 0 49 4 0 50 4 0 
0 5 0 1 5 0 2 5 0 
3 5 0 4 5 0 5 5 0 
6 5 0 7 5 0 8 5 0 
9 5 0 10 5 0 11 5 0 
12 5 0 13 5 0 14 5 0 
15 5 0 16 5 0 17 5 0 
18 5 0 19 5 0 20 5 0 
21 5 0 22 5 0 23 5 0 
24 5 0 25 5 0 26 5 0 
27 5 0 28 5 0 29 5 0 
30 5 0 31 5 0 32 5 0 
33 5 0 34 5 0 35 5 0 
36 5 0 37 5 0 38 5 0 
39 5 0 40 5 0 41 5 0 
42 5 0 43 5 0 44 5 0 
45 5 0 46 5 0 47 5 0 
48 5 0 49 5 0 50 5 0 
0 6 0 1 6 0 2 6 0 
3 6 0 4 6 0 5 6 0 
6 6 0 7 6 0 8 6 0 
9 6 0 10 6 0 11 6 0 
12 6 0 13 6 0 14 6 0 
15 6 0 16 6 0 17 6 0 
18 6 0 19 6 0 20 6 0 
21 6 0 22 6 0 23 6 0 
24 6 0 25 6 0 26 6 0 
27 6 0 28 6 0 29 6 0 
30 6 0 31 6 0 32 6 0 
33 6 0 34 6 0 35 6 0 
36 6 0 37 6 0 38 6 0 
39 6 0 40 6 0 41 6 0 
42 6 0 43 6 0 44 6 0 
45 6 0 46 6 0 47 6 0 
48 6 0 49 6 0 50 6 0 
0 7 0 1 7 0 2 7 0 
3 7 0 4 7 0 5 7 0 
6 7 0 7 7 0 8 7 0 
9 7 0 10 7 0 11 7 0 
12 7 0 13 7 0 14 7 0 
15 7 0 16 7 0 17 7 0 
18 7 0 19 7 0 20 7 0 
21 7 0 22 7 0 23 7 0 
24 7 0 25 7 0 26 7 0 
27 7 0 28 7 0 29 7 0 
30 7 0 31 7 0 32 7 0 
33 7 0 34 7 0 35 7 0 
36 7 0 37 7 0 38 7 0 
39 7 0 40 7 0 41 7 0 
42 7 0 43 7 0 44 7 0 
45 7 0 46 7 0 47 7 0 
48 7 0 49 7 0 50 7 0 
0 8 0 1 8 0 2 8 0 
3 8 0 4 8 0 5 8 0 
6 8 0 7 8 0 8 8 0 
9 8 0 10 8 0 11 8 0 
12 8 0 13 8 0 14 8 0 
15 8 0 16 8 0 17 8 0 
18 8 0 19 8 0 20 8 0 
21 8 0 22 8 0 23 8 0 
24 8 0 25 8 0 26 8 0 
27 8 0 28 8 0 29 8 0 
30 8 0 31 8 0 32 8 0 
33 8 0 34 8 0 35 8 0 
36 8 0 37 8 0 38 8 0 
39 8 0 40 8 0 41 8 0 
42 8 0 43 8 0 44 8 0 
45 8 0 46 8 0 47 8 0 
48 8 0 49 8 0 50 8 0 
0 9 0 1 9 0 2 9 0 
3 9 0 4 9 0 5 9 0 
6 9 0 7 9 0 8 9 0 
9 9 0 10 9 0 11 9 0 
12 9 0 13 9 0 14 9 0 
15 9 0 16 9 0 17 9 0 
18 9 0 19 9 0 20 9 0 
21 9 0 22 9 0 23 9 0 
24 9 0 25 9 0 26 9 0 
27 9 0 28 9 0 29 9 0 
30 9 0 31 9 0 32 9 0 
33 9 0 34 9 0 35 9 0 
36 9 0 37 9 0 38 9 0 
39 9 0 40 9 0 41 9 0 
42 9 0 43 9 0 44 9 0 
45 9 0 46 9 0 47 9 0 
48 9 0 49 9 0 50 9 0 
0 10 0 1 10 0 2 10 0 
3 10 0 4 10 0 5 10 0 
6 10 0 7 10 0 8 10 0 
9 10 0 10 10 0 11 10 0 
12 10 0 13 10 0 14 10 0 
15 10 0 16 10 0 17 10 0 
18 10 0 19 10 0 20 10 0 
21 10 0 22 10 0 23 10 0 
24 10 0 25 10 0 26 10 0 
27 10 0 28 10 0 29 10 0 
30 10 0 31 10 0 32 10 0 
33 10 0 34 10 0 35 10 0 
36 10 0 37 10 0 38 10 0 
39 10 0 40 10 0 41 10 0 
42 10 0 43 10 0 44 10 0 
45 10 0 46 10 0 47 10 0 
48 10 0 49 10 0 50 10 0 
0 11 0 1 11 0 2 11 0 
3 11 0 4 11 0 5 11 0 
6 11 0 7 11 0 8 11 0 
9 11 0 10 11 0 11 11 0 
12 11 0 13 11 0 14 11 0 
15 11 0 16 11 0 17 11 0 
18 11 0 19 11 0 20 11 0 
21 11 0 22 11 0 23 11 0 
24 11 0 25 11 0 26 11 0 
27 11 0 28 11 0 29 11 0 
30 11 0 31 11 0 32 11 0 
33 11 0 34 11 0 35 11 0 
36 11 0 37 11 0 38 11 0 
39 11 0 40 11 0 41 11 0 
42 11 0 43 11 0 44 11 0 
45 11 0 46 11 0 47 11 0 
48 11 0 49 11 0 50 11 0 
0 12 0 1 12 0 2 12 0 
3 12 0 4 12 0 5 12 0 
6 12 0 7 12 0 8 12 0 
9 12 0 10 12 0 11 12 0 
12 12 0 13 12 0 14 12 0 
15 12 0 16 12 0 17 12 0 
18 12 0 19 12 0 20 12 0 
21 12 0 22 12 0 23 12 0 
24 12 0 25 12 0 26 12 0 
27 12 0 28 12 0 29 12 0 
30 12 0 31 12 0 32 12 0 
33 12 0 34 12 0 35 12 0 
36 12 0 37 12 0 38 12 0 
39 12 0 40 12 0 41 12 0 
42 12 0 43 12 0 44 12 0 
45 12 0 46 12 0 47 12 0 
48 12 0 49 12 0 50 12 0 
0 13 0 1 13 0 2 13 0 
3 13 0 4 13 0 5 13 0 
6 13 0 7 13 0 8 13 0 
9 13 0 10 13 0 11 13 0 
12 13 0 13 13 0 14 13 0 
15 13 0 16 13 0 17 13 0 
18 13 0 19 13 0 20 13 0 
21 13 0 22 13 0 23 13 0 
24 13 0 25 13 0 26 13 0 
27 13 0 28 13 0 29 13 0 
30 13 0 31 13 0 32 13 0 
33 13 0 34 13 0 35 13 0 
36 13 0 37 13 0 38 13 0 
39 13 0 40 13 0 41 13 0 
42 13 0 43 13 0 44 13 0 
45 13 0 46 13 0 47 13 0 
48 13 0 49 13 0 50 13 0 
0 14 0 1 14 0 2 14 0 
3 14 0 4 14 0 5 14 0 
6 14 0 7 14 0 8 14 0 
9 14 0 10 14 0 11 14 0 
12 14 0 13 14 0 14 14 0 
15 14 0 16 14 0 17 14 0 
18 14 0 19 14 0 20 14 0 
21 14 0 22 14 0 23 14 0 
24 14 0 25 14 0 26 14 0 
27 14 0 28 14 0 29 14 0 
30 14 0 31 14 0 32 14 0 
33 14 0 34 14 0 35 14 0 
36 14 0 37 14 0 38 14 0 
39 14 0 40 14 0 41 14 0 
42 14 0 43 14 0 44 14 0 
45 14 0 46 14 0 47 14 0 
48 14 0 49 14 0 50 14 0 
0 15 0 1 15 0 2 15 0 
3 15 0 4 15 0 5 15 0 
6 15 0 7 15 0 8 15 0 
9 15 0 10 15 0 11 15 0 
12 15 0 13 15 0 14 15 0 
15 15 0 16 15 0 17 15 0 
18 15 0 19 15 0 20 15 0 
21 15 0 22 15 0 23 15 0 
24 15 0 25 15 0 26 15 0 
27 15 0 28 15 0 29 15 0 
30 15 0 31 15 0 32 15 0 
33 15 0 34 15 0 35 15 0 
36 15 0 37 15 0 38 15 0 
39 15 0 40 15 0 41 15 0 
42 15 0 43 15 0 44 15 0 
45 15 0 46 15 0 47 15 0 
48 15 0 49 15 0 50 15 0 
0 16 0 1 16 0 2 16 0 
3 16 0 4 16 0 5 16 0 
6 16 0 7 16 0 8 16 0 
9 16 0 10 16 0 11 16 0 
12 16 0 13 16 0 14 16 0 
15 16 0 16 16 0 17 16 0 
18 16 0 19 16 0 20 16 0 
21 16 0 22 16 0 23 16 0 
24 16 0 25 16 0 26 16 0 
27 16 0 28 16 0 29 16 0 
30 16 0 31 16 0 32 16 0 
33 16 0 34 16 0 35 16 0 
36 16 0 37 16 0 38 16 0 
39 16 0 40 16 0 41 16 0 
42 16 0 43 16 0 44 16 0 
45 16 0 46 16 0 47 16 0 
48 16 0 49 16 0 50 16 0 
0 17 0 1 17 0 2 17 0 
3 17 0 4 17 0 5 17 0 
6 17 0 7 17 0 8 17 0 
9 17 0 10 17 0 11 17 0 
12 17 0 13 17 0 14 17 0 
15 17 0 16 17 0 17 17 0 
18 17 0 19 17 0 20 17 0 
21 17 0 22 17 0 23 17 0 
24 17 0 25 17 0 26 17 0 
27 17 0 28 17 0 29 17 0 
30 17 0 31 17 0 32 17 0 
33 17 0 34 17 0 35 17 0 
36 17 0 37 17 0 38 17 0 
39 17 0 40 17 0 41 17 0 
42 17 0 43 17 0 44 17 0 
45 17 0 46 17 0 47 17 0 
48 17 0 49 17 0 50 17 0 
0 18 0 1 18 0 2 18 0 
3 18 0 4 18 0 5 18 0 
6 18 0 7 18 0 8 18 0 
9 18 0 10 18 0 11 18 0 
12 18 0 13 18 0 14 18 0 
15 18 0 16 18 0 17 18 0 
18 18 0 19 18 0 20 18 0 
21 18 0 22 18 0 23 18 0 
24 18 0 25 18 0 26 18 0 
27 18 0 28 18 0 29 18 0 
30 18 0 31 18 0 32 18 0 
33 18 0 34 18 0 35 18 0 
36 18 0 37 18 0 38 18 0 
39 18 0 40 18 0 41 18 0 
42 18 0 43 18 0 44 18 0 
45 18 0 46 18 0 47 18 0 
48 18 0 49 18 0 50 18 0 
0 19 0 1 19 0 2 19 0 
3 19 0 4 19 0 5 19 0 
6 19 0 7 19 0 8 19 0 
9 19 0 10 19 0 11 19 0 
12 19 0 13 19 0 14 19 0 
15 19 0 16 19 0 17 19 0 
18 19 0 19 19 0 20 19 0 
21 19 0 22 19 0 23 19 0 
24 19 0 25 19 0 26 19 0 
27 19 0 28 19 0 29 19 0 
30 19 0 31 19 0 32 19 0 
33 19 0 34 19 0 35 19 0 
36 19 0 37 19 0 38 19 0 
39 19 0 40 19 0 41 19 0 
42 19 0 43 19 0 44 19 0 
45 19 0 46 19 0 47 19 0 
48 19 0 49 19 0 50 19 0 
0 20 0 1 20 0 2 20 0 
3 20 0 4 20 0 5 20 0 
6 20 0 7 20 0 8 20 0 
9 20 0 10 20 0 11 20 0 
12 20 0 13 20 0 14 20 0 
15 20 0 16 20 0 17 20 0 
18 20 0 19 20 0 20 20 0 
21 20 0 22 20 0 23 20 0 
24 20 0 25 20 0 26 20 0 
27 20 0 28 20 0 29 20 0 
30 20 0 31 20 0 32 20 0 
33 20 0 34 20 0 35 20 0 
36 20 0 37 20 0 38 20 0 
39 20 0 40 20 0 41 20 0 
42 20 0 43 20 0 44 20 0 
45 20 0 46 20 0 47 20 0 
48 20 0 49 20 0 50 20 0 
0 21 0 1 21 0 2 21 0 
3 21 0 4 21 0 5 21 0 
6 21 0 7 21 0 8 21 0 
9 21 0 10 21 0 11 21 0 
12 21 0 13 21 0 14 21 0 
15 21 0 16 21 0 17 21 0 
18 21 0 19 21 0 20 21 0 
21 21 0 22 21 0 23 21 0 
24 21 0 25 21 0 26 21 0 
27 21 0 28 21 0 29 21 0 
30 21 0 31 21 0 32 21 0 
33 21 0 34 21 0 35 21 0 
36 21 0 37 21 0 38 21 0 
39 21 0 40 21 0 41 21 0 
42 21 0 43 21 0 44 21 0 
45 21 0 46 21 0 47 21 0 
48 21 0 49 21 0 50 21 0 
0 22 0 1 22 0 2 22 0 
3 22 0 4 22 0 5 22 0 
6 22 0 7 22 0 8 22 0 
9 22 0 10 22 0 11 22 0 
12 22 0 13 22 0 14 22 0 
15 22 0 16 22 0 17 22 0 
18 22 0 19 22 0 20 22 0 
21 22 0 22 22 0 23 22 0 
24 22 0 25 22 0 26 22 0 
27 22 0 28 22 0 29 22 0 
30 22 0 31 22 0 32 22 0 
33 22 0 34 22 0 35 22 0 
36 22 0 37 22 0 38 22 0 
39 22 0 40 22 0 41 22 0 
42 22 0 43 22 0 44 22 0 
45 22 0 46 22 0 47 22 0 
48 22 0 49 22 0 50 22 0 
0 23 0 1 23 0 2 23 0 
3 23 0 4 23 0 5 23 0 
6 23 0 7 23 0 8 23 0 
9 23 0 10 23 0 11 23 0 
12 23 0 13 23 0 14 23 0 
15 23 0 16 23 0 17 23 0 
18 23 0 19 23 0 20 23 0 
21 23 0 22 23 0 23 23 0 
24 23 0 25 23 0 26 23 0 
27 23 0 28 23 0 29 23 0 
30 23 0 31 23 0 32 23 0 
33 23 0 34 23 0 35 23 0 
36 23 0 37 23 0 38 23 0 
39 23 0 40 23 0 41 23 0 
42 23 0 43 23 0 44 23 0 
45 23 0 46 23 0 47 23 0 
48 23 0 49 23 0 50 23 0 
0 24 0 1 24 0 2 24 0 
3 24 0 4 24 0 5 24 0 
6 24 0 7 24 0 8 24 0 
9 24 0 10 24 0 11 24 0 
12 24 0 13 24 0 14 24 0 
15 24 0 16 24 0 17 24 0 
18 24 0 19 24 0 20 24 0 
21 24 0 22 24 0 23 24 0 
24 24 0 25 24 0 26 24 0 
27 24 0 28 24 0 29 24 0 
30 24 0 31 24 0 32 24 0 
33 24 0 34 24 0 35 24 0 
36 24 0 37 24 0 38 24 0 
39 24 0 40 24 0 41 24 0 
42 24 0 43 24 0 44 24 0 
45 24 0 46 24 0 47 24 0 
48 24 0 49 24 0 50 24 0 
0 25 0 1 25 0 2 25 0 
3 25 0 4 25 0 5 25 0 
[...]
CELL_DATA 2500
SCALARS $\mu_{AB} double
LOOKUP_TABLE default
-0.0023624761336 -0.002342285354 -0.002208352896 -0.0020496117169 -0.0019617176303 -0.0019685419696 -0.0020178380997 -0.0020269395373 -0.0019768503208 
-0.0019436992104 -0.0020051116967 -0.00215410069 -0.0022773841189 -0.0021831597017 -0.0017937311705 -0.0013310360112 -0.0011127063798 -0.0013038583661 
-0.0017783330478 -0.0022114374452 -0.0023028321548 -0.0020786744411 -0.0017805277449 -0.0016507020119 -0.0017817420793 -0.002067706052 -0.0022561178381 
-0.002233878395 -0.0021213226542 -0.0020459522606 -0.0020348346487 -0.0020525817386 -0.0020744665518 -0.0021002791701 -0.002099960638 -0.0020131374136 
-0.0018469177912 -0.0017248699001 -0.0017691758461 -0.0019840971903 -0.0022396339951 -0.0023698505477 -0.0023460514374 -0.0022295484304 -0.002081029204 
-0.001958522686 -0.0019168679243 -0.0019797283224 -0.0021190876842 -0.0022701206695 -0.0023041502127 -0.0023356689488 -0.0022517756594 -0.0021148364013 
-0.0020167410835 -0.0019965798319 -0.0020170718501 -0.0020069847487 -0.0019514708465 -0.0019215096201 -0.0019901035121 -0.0021498108115 -0.0022966680432 
-0.0022681905077 -0.0019875367092 -0.0016223229173 -0.0014378455913 -0.0015663680924 -0.001921399543 -0.002245940873 -0.0023566454882 -0.0022708768554 
-0.0021163949972 -0.0020515317871 -0.0021340983313 -0.0022491728431 -0.002218524048 -0.0020408365139 -0.0018649997408 -0.0018150368022 -0.0019061807835 
-0.0020620693408 -0.0021931676494 -0.0022454273703 -0.0021698698238 -0.0019272338873 -0.0015882007571 -0.0013399830248 -0.0013516143181 -0.001625810093 
-0.0020120152587 -0.0022991802881 -0.0023694778394 -0.0022782598147 -0.0021140807371 -0.001952169 -0.0018619981852 -0.001885551238 -0.0020099516287 
-0.0021746628991 -0.0021781584209 -0.0021918423453 -0.0021117425343 -0.0020093736543 -0.0019652829417 -0.0019989853447 -0.0020593942894 -0.0020709936601 
-0.0020199702344 -0.0019799466187 -0.0020301900582 -0.0021747746892 -0.0023216962689 -0.0023331086191 -0.0021427252255 -0.0018564429259 -0.0016734577289 
-0.0017100243086 -0.0019101833115 -0.0021171381376 -0.0022366535214 -0.0022699817223 -0.0022646929838 -0.0022803869027 -0.0023240262533 -0.0023023454728 
-0.0021274282345 -0.0018524086251 -0.001630153742 -0.0015902319967 -0.0017429369085 -0.0019836326067 -0.002185538369 -0.0022674051987 -0.0021763406878 
-0.0018741728678 -0.001450286302 -0.0011181658602 -0.0010913586046 -0.0013876305161 -0.0018165643787 -0.0021789949008 -0.0023442723136 -0.0023233687161 
-0.0021968498508 -0.0020377940325 -0.0019171096412 -0.0018885058758 -0.0019581934735 -0.0020792150821 -0.0020651695293 -0.0020054667557 -0.001886887397 
-0.0018072064855 -0.0018396958792 -0.0019699145899 -0.0021090912303 -0.0021569407284 -0.0020925973895 -0.0020060560988 -0.0020088545735 -0.0021329942089 
-0.0022941948502 -0.0023482752211 -0.0022215302051 -0.0019815817558 -0.0017761528974 -0.0017115674635 -0.0017739927315 -0.00187866566 -0.0019732950608 
-0.0020626080033 -0.0021676779368 -0.0022818330533 -0.002353055031 -0.0023006215363 -0.0020874386022 -0.0017892312529 -0.001558970546 -0.0015267396276 
-0.0016969384616 -0.0019530661224 -0.0021641876968 -0.0022632753615 -0.0022139770704 -0.001962564646 -0.0015598146733 -0.0012246447414 -0.001162356313 
-0.0013983416371 -0.0017635797618 -0.0020743650595 -0.0022498496569 -0.0023035851749 -0.0022699938033 -0.0021747960002 -0.0020657381257 -0.0020006267471 
-0.0020036548737 -0.0020464426157 -0.0020039048957 -0.0018602896698 -0.0016968831762 -0.0016293838905 -0.0017246288937 -0.0019369455387 -0.002137739679 
-0.0021899917793 -0.0020595266868 -0.0018778487175 -0.0018163518513 -0.0019407969459 -0.0021689405435 -0.0023161621342 -0.0022690296411 -0.0020766691424 
-0.001864027198 -0.0017306389407 -0.0016908339757 -0.0016996117888 -0.0017312058398 -0.0018065395668 -0.001950348551 -0.0021395067293 -0.0022866189244 
-0.0022908944949 -0.0021252361488 -0.0018726601324 -0.0016811628028 -0.0016639317103 -0.0018165467822 -0.0020305698475 -0.0021985898323 -0.0022881965122 
-0.002288437807 -0.0021517669454 -0.0018655223472 -0.0015872871076 -0.0015006800982 -0.0016162186227 -0.0018107147709 -0.0019550120322 -0.0020389924379 
-0.0021196559298 -0.0022031787704 -0.0022410514979 -0.0022118140109 -0.0021542048704 -0.0021108055555 -0.0020762529557 -0.0020025959673 -0.0018212720669 
-0.0016444104689 -0.0015894997401 -0.001715936256 -0.0019593931816 -0.0021663999267 -0.0021694851451 -0.0019389679522 -0.0016601680022 -0.0015487577915 
-0.0016927745614 -0.002000745993 -0.0022642095617 -0.0023258649907 -0.0022113173354 -0.0020347788968 -0.0018860642945 -0.0017870904894 -0.0017151127943 
-0.0016660235137 -0.0016789588126 -0.0017923699942 -0.0019888939699 -0.0021816619495 -0.0022560438906 -0.0021678836525 -0.0019916964203 -0.0018633924831 
-0.0018759086942 -0.0020107628925 -0.0021694144109 -0.0022797693045 -0.0023402724417 -0.0023575882163 -0.0023073008261 -0.0021660109074 -0.0019865634748 
-0.0018806431943 -0.0018579491158 -0.0018367938698 -0.001775423815 -0.0017369154458 -0.0018009565925 -0.0019623661922 -0.0021365078704 -0.0022341505905 
-0.002238326864 -0.00219288285 -0.0021218882998 -0.0020285881089 -0.0018906181243 -0.0017501277907 -0.0017141417839 -0.0018362989988 -0.0020564906238 
-0.002223186178 -0.002166360477 -0.0018758936995 -0.0015510033378 -0.0014148290863 -0.001573092593 -0.0019184919162 -0.0022442547842 -0.0023890526838 
-0.002357556775 -0.0022508614328 -0.0021403223413 -0.0020370481716 -0.0019244456058 -0.0018129704266 -0.0017515547617 -0.0017911749063 -0.0019327880367 
-0.0021025787334 -0.0021873711495 -0.0021263457122 -0.001985746706 -0.0019014767532 -0.0019578429296 -0.0021188339202 -0.0022730747437 -0.0023580064654 
-0.0023869616836 -0.0023777064384 -0.0023295804728 -0.0022548955839 -0.0021802488465 -0.0021066175166 -0.0020008405653 -0.0018306541298 -0.0016273012002 
-0.001496563806 -0.001531514313 -0.0017196406206 -0.0019555342346 -0.0021247331451 -0.0021784200049 -0.0021572918956 -0.002110688547 -0.0020186664245 
-0.0019946415757 -0.0019321777347 -0.0019164689377 -0.002007298817 -0.002172607625 -0.0022943025366 -0.0022290302682 -0.0019612062215 -0.0016659621621 
-0.0015446144632 -0.0016843584481 -0.001995047012 -0.002290082969 -0.0024226250927 -0.0024081926389 -0.002358552257 -0.0023295715687 -0.0022906791817 
-0.00219928786 -0.0020674220641 -0.0019532635667 -0.0019184180298 -0.0019841152476 -0.0020905908146 -0.0021229309847 -0.0020111082899 -0.0018281841391 
-0.0017303957759 -0.0018135820983 -0.0020393734245 -0.0022654135195 -0.0023797842807 -0.002380136516 -0.0022973914387 -0.0021731731288 -0.0020863264786 
-0.0020857547989 -0.0021181359608 -0.0020713246615 -0.0018977571708 -0.0016635149121 -0.0014980432335 -0.0015012223661 -0.0016637798623 -0.0018733216419 
-0.0020060554009 -0.0020209860648 -0.0019921309972 -0.0019972912636 -0.0019530171601 -0.0020554392331 -0.0020724438456 -0.0020559517959 -0.0020888348162 
-0.0021953706304 -0.0023114837175 -0.0023164092697 -0.0021562949195 -0.001949031432 -0.0018636277894 -0.0019639845452 -0.0021815310326 -0.0023461493982 
-0.0023312990992 -0.0022061734353 -0.0021511229462 -0.0022308544471 -0.0023507338236 -0.0023647839515 -0.0022577015679 -0.0021157680388 -0.0020396219479 
-0.0020677739909 -0.0021342362139 -0.0021110333125 -0.0019267470811 -0.001670291679 -0.0015202645656 -0.0015963521106 -0.0018608081886 -0.0021583320302 
-0.0023220176398 -0.0022865901541 -0.0020985208226 -0.0018785700205 -0.0017718884698 -0.0018394529167 -0.0020073083575 -0.0021173304875 -0.0020691549279 
-0.0019077949656 -0.0017676867377 -0.0017481113969 -0.0018423554036 -0.0019506301982 -0.0019587925195 -0.0018606139922 -0.001782139313 -0.0018241364936 
-0.0018854021797 -0.0020670646641 -0.0021063905877 -0.0020310105112 -0.0019783691793 -0.0020446170622 -0.0022043482204 -0.0023310810354 -0.002319962502 
-0.0022184302209 -0.0021599321051 -0.0022114109796 -0.002309849192 -0.0022802940058 -0.0020336819838 -0.0017600711126 -0.0016764662371 -0.0018237548332 
-0.0021139295613 -0.0022846695356 -0.0021986729087 -0.0020276157265 -0.001965342471 -0.0020514570518 -0.0021752440071 -0.0021695803284 -0.0019637716779 
-0.0016672979978 -0.0014711749567 -0.0015129923537 -0.0017635850896 -0.0020620792832 -0.0022265986657 -0.0021435114546 -0.001872556225 -0.0015949874642 
-0.0014880757146 -0.0016238563743 -0.0019080802824 -0.0021625532882 -0.002262939753 -0.0022190363219 -0.0021395247211 -0.0021147841791 -0.0021390425258 
-0.0021229030608 -0.001981791099 -0.0017614505218 -0.001625227572 -0.001684303288 -0.0018746723749 -0.0020685826504 -0.0020527088787 -0.0018724757127 
-0.0017387960585 -0.0017922786221 -0.0020118280473 -0.0022484287907 -0.0023435306785 -0.0022834964372 -0.0021941846856 -0.0021853414399 -0.0022186253749 
-0.0020755584172 -0.0016954774719 -0.0013221141206 -0.0012037482286 -0.0014118448041 -0.0017819648333 -0.0020002861849 -0.0018394706984 -0.0016138741543 
-0.0015989948223 -0.0018252140527 -0.0021288015533 -0.0022599927167 -0.0021237616032 -0.0018517081494 -0.001649435791 -0.0016460753697 -0.0018281922471 
-0.0020568434799 -0.0021640941792 -0.0020443766374 -0.0017577561731 -0.0014861786224 -0.0014101653065 -0.0015953837755 -0.0019333374917 -0.0022389437175 
-0.0023784183741 -0.0023733875327 -0.0023488717885 -0.0023653855275 -0.0023744512978 -0.0022833963142 -0.00204504559 -0.0017508030989 -0.0015804462001 
-0.0016450700447 -0.0019304902517 -0.0020897963678 -0.0019923066914 -0.0017301014967 -0.0015475332347 -0.0016045428952 -0.0018689606206 -0.0021532509892 
-0.0022466856396 -0.0020936849094 -0.0018880684192 -0.0018266626966 -0.0019096405257 -0.0018792972913 -0.0015432293076 -0.0011427416478 -0.00099701305698 
-0.0012458694517 -0.0016191541569 -0.0017330399807 -0.0014300236821 -0.001118621108 -0.0011253887262 -0.0014886353878 -0.0019841096823 -0.0023167857301 
-0.0023243738054 -0.0021333255626 -0.0019540913528 -0.0019127483809 -0.0020037313997 -0.0021274239425 -0.0021627758305 -0.0020419505261 -0.0018112963369 
-0.001613520323 -0.0015935021889 -0.0017892798128 -0.0020954576894 -0.0023086207076 -0.0022842711599 -0.002131096778 -0.0020858784705 -0.0022314844908 
-0.0023917501495 -0.0023591582573 -0.0021201152055 -0.0018160685921 -0.0016423918058 -0.0017067621178 -0.0020187526948 -0.0021377693992 -0.0020055616425 
-0.001730638174 -0.0015481768884 -0.001610062768 -0.0018737459954 -0.0021272229079 -0.0021066064089 -0.0017756639866 -0.0014248793153 -0.0013233323202 
-0.0015057763545 -0.00173226151 -0.001618891628 -0.0013275983934 -0.0012251532419 -0.0014130559028 -0.0016938847814 -0.0016499930893 -0.0012296271987 
-0.00083121162191 -0.00085302543013 -0.0013137590148 -0.0019010592215 -0.0023484845547 -0.0024597201839 -0.0023498097189 -0.0022013088269 -0.0021342456289 
-0.00215840166 -0.0022067232691 -0.0022034331805 -0.0021155731668 -0.0019795652667 -0.0018873867815 -0.0019242729753 -0.002095420826 -0.0022760220356 
-0.0022272814094 -0.0018793603616 -0.0015293602956 -0.0014231291844 -0.0016388216605 -0.0020932446867 -0.0023136010473 -0.002178927453 -0.001917568856 
-0.0017607530241 -0.0018201099798 -0.0020984617884 -0.0021896619609 -0.0020873785913 -0.0018738104218 -0.0017396076488 -0.0018045272315 -0.0020237356859 
-0.0021875567708 -0.0020123164495 -0.0015326519014 -0.0010584985463 -0.00091378285912 -0.0011964065844 -0.0016371676329 -0.0018521243761 -0.0017508426091 
-0.0016990381544 -0.0018241076372 -0.0019722433026 -0.0017909197827 -0.0013406390298 -0.00097112815724 -0.0010025890904 -0.0014381327997 -0.0020035504908 
-0.0024022682598 -0.0024670542109 -0.0023282903914 -0.0021690374108 -0.0021135340694 -0.0021593272306 -0.0022267940678 -0.0022459996974 -0.0022061214287 
-0.0021507302195 -0.0021448986643 -0.0022242630438 -0.0023459759955 -0.0023414112764 -0.0019784877463 -0.0013838930728 -0.00086869206985 -0.00072363961665 
-0.0010260971843 -0.0016488986758 -0.0021716610142 -0.0022152414377 -0.0020267919882 -0.0018935779977 -0.0019387446316 -0.0021433012185 -0.0022008623167 
-0.0021490120779 -0.002039779762 -0.0019854336089 -0.0020627560354 -0.0022285540417 -0.0023011902312 -0.0020449522349 -0.0015185442059 -0.0010199232952 
-0.00085931829598 -0.0011637226647 -0.001679504411 -0.0020857862936 -0.0021883496988 -0.0021847183588 -0.0022495035307 -0.0022815386709 -0.0020838500084 
-0.0017105839671 -0.001436496451 -0.001464833857 -0.0018036718423 -0.0022270435236 -0.0024159873877 -0.0022891523686 -0.0019969682977 -0.001783565052 
-0.0017807462667 -0.001947272583 -0.0021447307778 -0.0022497810618 -0.0022483471053 -0.0022139172504 -0.0022371779295 -0.0023441578315 -0.0024468627719 
-0.0023350980726 -0.0018068320493 -0.0011233113292 -0.00047216697184 -0.00026553845227 -0.00071437621918 -0.0014287046747 -0.0020683213495 -0.002255583074 
-0.0021395835225 -0.0020251481066 -0.0020413620368 -0.0021370817907 -0.0021491249725 -0.0021279677281 -0.00210905706 -0.0021392001871 -0.0022400410511 
-0.0023655275175 -0.0024007957159 -0.0022030553309 -0.0017605877928 -0.0013335536513 -0.0011987788934 -0.001437786624 -0.0018891459241 -0.0022614214352 
-0.0024032831409 -0.0024187600031 -0.0024323014299 -0.0024325447492 -0.0023367977655 -0.0021266324207 -0.0019493818613 -0.001968868707 -0.0021794590983 
-0.002360613921 -0.002295954068 -0.0019617259136 -0.0015369893478 -0.0012804110119 -0.001333472745 -0.0016420524656 -0.0019991561755 -0.0022015628216 
-0.0021828817086 -0.0020709780521 -0.0020518044168 -0.0021867436422 -0.0023733537564 -0.0023458187651 -0.0018537828417 -0.001188179372 -0.00062153147684 
-0.00044940376355 -0.00082646347118 -0.0015039358597 -0.002121512871 -0.0023312634777 -0.0022499331339 -0.0021379777509 -0.0021089514683 -0.0020770511547 
-0.0020624707985 -0.0020600015556 -0.0020911652913 -0.0021680161268 -0.0022745347132 -0.0023675989785 -0.0024023986559 -0.0023282997039 -0.0020906628414 
-0.0017960339647 -0.0016875685294 -0.0018389319577 -0.0021247162838 -0.0023155168416 -0.0023430146944 -0.002307506984 -0.0023094982033 -0.0023558263676 
-0.0023836243691 -0.0023451830233 -0.0022816807521 -0.0022835915115 -0.0023428811957 -0.0023288644452 -0.0021172027452 -0.0016952048698 -0.0012219562873 
-0.00095010751476 -0.0010716873439 -0.0014904031818 -0.0019317238392 -0.0021411970959 -0.0019907435221 -0.001711995367 -0.0016073380917 -0.0017586196021 
-0.0020916851564 -0.0023199978488 -0.0021319597264 -0.001617261781 -0.0012043374392 -0.0011039198284 -0.0013375286419 -0.001855455843 -0.0023023474923 
-0.002414244354 -0.0023158250113 -0.0021837563939 -0.0021058695734 -0.00198062402 -0.0019940746951 -0.0020219068545 -0.0020744678722 -0.0021487351843 
-0.0022155014609 -0.0022507713679 -0.0022693593519 -0.0022818202689 -0.0022461130317 -0.0021413889651 -0.0020798356399 -0.0021389101097 -0.0022283859138 
-0.002211879388 -0.0020918307979 -0.001986704635 -0.0019974041626 -0.0021197678778 -0.0022634151218 -0.002346496625 -0.0023606525352 -0.0023461689834 
-0.0023171562187 -0.0022329990221 -0.0020198377935 -0.0016471321918 -0.0012391559699 -0.0010402144348 -0.0012073601806 -0.0016288893199 -0.0020381731144 
-0.0021192166299 -0.0017591301818 -0.0013016796767 -0.0010955245882 -0.0012716191476 -0.001720021352 -0.0021847250004 -0.0023501042027 -0.0021677386852 
-0.0018993297177 -0.0018173679988 -0.0019658796476 -0.002261385823 -0.0024431347221 -0.0024153311023 -0.0022566481426 -0.002089124435 -0.0019975099466 
-0.0018674071209 -0.001972045417 -0.0020532332558 -0.0021109201016 -0.002140320878 -0.0021198037424 -0.0020648823801 -0.0020419241434 -0.0020910461939 
-0.0021795181108 -0.0022391422048 -0.0022575770692 -0.0022596644617 -0.002200705659 -0.0020254982985 -0.0017875533309 -0.0016269758968 -0.0016528812167 
-0.0018499623744 -0.0020937820059 -0.0022612297301 -0.0023111831968 -0.0022726921388 -0.0021988985301 -0.0021221497461 -0.0020105562588 -0.0018066070179 
-0.0015683576503 -0.0014833926182 -0.0016543630429 -0.0019966243312 -0.0022675751827 -0.0021612198133 -0.0016486924458 -0.0010777283019 -0.00077264425377 
-0.00097512375724 -0.0015010225632 -0.0020541329617 -0.0023753014885 -0.002391644129 -0.0023020435652 -0.0022663470436 -0.0023346464288 -0.0024320983494 
-0.0024292740465 -0.0022725932965 -0.002028952033 -0.0018386525122 -0.0017922005521 -0.0017649867071 -0.0019882119647 -0.0021326564839 -0.0021815359892 
-0.0021406583818 -0.0020190796859 -0.0018785490758 -0.0018137517273 -0.0018753201402 -0.0020293533917 -0.0021887163649 -0.0022825139896 -0.0022815355883 
-0.0021581169289 -0.0019063450646 -0.0016087710632 -0.0014162545749 -0.0014484368342 -0.0016846446063 -0.00197992156 -0.0021815224729 -0.0022214306023 
-0.002134282549 -0.0020195801114 -0.0019673579521 -0.0019830635145 -0.0019961666002 -0.0019705013903 -0.001992698987 -0.002141046312 -0.0023492885777 
-0.0024505512306 -0.0022670209044 -0.0017453342616 -0.0011778596123 -0.00087227791551 -0.0010335686398 -0.0015308093262 -0.0020397805857 -0.0023060614987 
-0.0023158996614 -0.0022637726736 -0.0022621953102 -0.0023238927444 -0.0023724219878 -0.0022906261571 -0.002039441531 -0.0017342813068 -0.0015439499691 
-0.0015682725292 -0.0017364235806 -0.0020328981234 -0.0022025136026 -0.0022158245538 -0.0021099601172 -0.001932970188 -0.0017609710796 -0.001684674888 
-0.0017543352172 -0.0019347944392 -0.0021337804356 -0.0022680505141 -0.002293275145 -0.0021834033037 -0.0019409926107 -0.0016501905209 -0.0014571874463 
-0.0014757730634 -0.0016902366483 -0.0019634257491 -0.0021340004118 -0.0021216049243 -0.0019734301291 -0.0018207001767 -0.0017842999596 -0.0018906320912 
-0.0020645428419 -0.0022102383009 -0.0023035404494 -0.0023743434411 -0.0024282368512 -0.0024436822734 -0.0023452848315 -0.002006462657 -0.0015528806722 
-0.0013071319606 -0.0014026302538 -0.0017636806167 -0.0021102970216 -0.0022190455975 -0.0021463928766 -0.0020649268873 -0.0020707773246 -0.0021588774618 
-0.0022298149055 -0.0021402017119 -0.0018631084351 -0.0015431738154 -0.0013695220464 -0.001456662705 -0.001830712108 -0.0020962576925 -0.0021961234291 
-0.0021390927767 -0.0020080826109 -0.0018585374502 -0.0017342805293 -0.0016943802477 -0.0017762675596 -0.0019487724539 -0.0021319706483 -0.0022610727585 
-0.0023086119928 -0.0022518129811 -0.0020775700039 -0.0018431503206 -0.0016719972406 -0.0016617860671 -0.0018079599882 -0.0020016817123 -0.0021048955979 
-0.0020447365059 -0.0018648534028 -0.0016960188829 -0.0016684322503 -0.00181619197 -0.0020521483795 -0.0022422211656 -0.0022976320516 -0.0022375415575 
-0.0021691509121 -0.0021791488981 -0.0022371723923 -0.0021977576715 -0.0019870530815 -0.0018144330978 -0.0018485240387 -0.0020373247633 -0.0021786485688 
-0.0021485002408 -0.0020110491294 -0.0019003846992 -0.0019042004701 -0.0020130933303 -0.002119834484 -0.0020751980841 -0.0018446530952 -0.0015680938338 
-0.0014363676037 -0.0015493037922 -0.0020027026943 -0.0021268741918 -0.0020915637934 -0.0019697490534 -0.001854514648 -0.0017851317618 -0.001763523177 
-0.0017961855685 -0.0018929459866 -0.0020296966859 -0.0021577065977 -0.0022506401433 -0.0023017852667 -0.0022905879593 -0.0021896865526 -0.0020213250103 
-0.0018752372316 -0.0018345534776 -0.0019079411488 -0.0020263551589 -0.0020919302911 -0.002037307552 -0.0018798816119 -0.0017285118907 -0.0017074182359 
-0.0018499771252 -0.0020617192768 -0.0021829599087 -0.0021006631552 -0.0018752911978 -0.0017106812669 -0.0017442170542 -0.0019476952032 -0.0021584554649 
-0.0022173876091 -0.0021630330619 -0.0021412190864 -0.0021722079477 -0.0021776008852 -0.0021010330552 -0.0019630238879 -0.0018526727193 -0.0018487661352 
-0.0019515181975 -0.0020753750678 -0.0020982625642 -0.0019689895567 -0.0017851148933 -0.0017054320446 -0.001803274948 -0.0021284768709 -0.002100172198 
-0.0019720553464 -0.0018259871005 -0.0017429955041 -0.001750587557 -0.0018210399213 -0.0019152253426 -0.0020118965666 -0.002097499163 -0.0021647934876 
-0.002218561986 -0.0022570875819 -0.0022560051346 -0.0021835918399 -0.0020500116581 -0.001926261707 -0.0018821768437 -0.001931777824 -0.0020324429884 