# vtk DataFile Version 4.2
vtk output
ASCII
DATASET UNSTRUCTURED_GRID
POINTS 2601 double
0 0 0 1 0 0 2 0 0 
3 0 0 4 0 0 5 0 0 
6 0 0 7 0 0 8 0 0 
9 0 0 10 0 0 11 0 0 
12 0 0 13 0 0 14 0 0 
15 0 0 16 0 0 17 0 0 
18 0 0 19 0 0 20 0 0 
21 0 0 22 0 0 23 0 0 
24 0 0 25 0 0 26 0 0 
27 0 0 28 0 0 29 0 0 
30 0 0 31 0 0 32 0 0 
33 0 0 34 0 0 35 0 0 
36 0 0 37 0 0 38 0 0 
39 0 0 40 0 0 41 0 0 
42 0 0 43 0 0 44 0 0 
45 0 0 46 0 0 47 0 0 
48 0 0 49 0 0 50 0 0 
0 1 0 1 1 0 2 1 0 
3 1 0 4 1 0 5 1 0 
6 1 0 7 1 0 8 1 0 
9 1 0 10 1 0 11 1 0 
12 1 0 13 1 0 14 1 0 
15 1 0 16 1 0 17 1 0 
18 1 0 19 1 0 20 1 0 
21 1 0 22 1 0 23 1 0 
24 1 0 25 1 0 26 1 0 
27 1 0 28 1 0 29 1 0 
30 1 0 31 1 0 32 1 0 
33 1 0 34 1 0 35 1 0 
36 1 0 37 1 0 38 1 0 
39 1 0 40 1 0 41 1 0 
42 1 0 43 1 0 44 1 0 
45 1 0 46 1 0 47 1 0 
48 1 0 49 1 0 50 1 0 
0 2 0 1 2 0 2 2 0 
3 2 0 4 2 0 5 2 0 
6 2 0 7 2 0 8 2 0 
9 2 0 10 2 0 11 2 0 
12 2 0 13 2 0 14 2 0 
15 2 0 16 2 0 17 2 0 
18 2 0 19 2 0 20 2 0 
21 2 0 22 2 0 23 2 0 
24 2 0 25 2 0 26 2 0 
27 2 0 28 2 0 29 2 0 
30 2 0 31 2 0 32 2 0 
33 2 0 34 2 0 35 2 0 
36 2 0 37 2 0 38 2 0 
39 2 0 40 2 0 41 2 0 
42 2 0 43 2 0 44 2 0 
45 2 0 46 2 0 47 2 0 
48 2 0 49 2 0 50 2 0 
0 3 0 1 3 0 2 3 0 
3 3 0 4 3 0 5 3 0 
6 3 0 7 3 0 8 3 0 
9 3 0 10 3 0 11 3 0 
12 3 0 13 3 0 14 3 0 
15 3 0 16 3 0 17 3 0 
18 3 0 19 3 0 20 3 0 
21 3 0 22 3 0 23 3 0 
24 3 0 25 3 0 26 3 0 
27 3 0 28 3 0 29 3 0 
30 3 0 31 3 0 32 3 0 
33 3 0 34 3 0 35 3 0 
36 3 0 37 3 0 38 3 0 
39 3 0 40 3 0 41 3 0 
42 3 0 43 3 0 44 3 0 
45 3 0 46 3 0 47 3 0 
48 3 0 49 3 0 50 3 0 
0 4 0 1 4 0 2 4 0 
3 4 0 4 4 0 5 4 0 
6 4 0 7 4 0 8 4 0 
9 4 0 10 4 0 11 4 0 
12 4 0 13 4 0 14 4 0 
15 4 0 16 4 0 17 4 0 
18 4 0 19 4 0 20 4 0 
21 4 0 22 4 0 23 4 0 
24 4 0 25 4 0 26 4 0 
27 4 0 28 4 0 29 4 0 
30 4 0 31 4 0 32 4 0 
33 4 0 34 4 0 35 4 0 
36 4 0 37 4 0 38 4 0 
39 4 0 40 4 0 41 4 0 
42 4 0 43 4 0 44 4 0 
45 4 0 46 4 0 47 4 0 
48 4 0 49 4 0 50 4 0 
0 5 0 1 5 0 2 5 0 
3 5 0 4 5 0 5 5 0 
6 5 0 7 5 0 8 5 0 
9 5 0 10 5 0 11 5 0 
12 5 0 13 5 0 14 5 0 
15 5 0 16 5 0 17 5 0 
18 5 0 19 5 0 20 5 0 
21 5 0 22 5 0 23 5 0 
24 5 0 25 5 0 26 5 0 
27 5 0 28 5 0 29 5 0 
30 5 0 31 5 0 32 5 0 
33 5 0 34 5 0 35 5 0 
36 5 0 37 5 0 38 5 0 
39 5 0 40 5 0 41 5 0 
42 5 0 43 5 0 44 5 0 
45 5 0 46 5 0 47 5 0 
48 5 0 49 5 0 50 5 0 
0 6 0 1 6 0 2 6 0 
3 6 0 4 6 0 5 6 0 
6 6 0 7 6 0 8 6 0 
9 6 0 10 6 0 11 6 0 
12 6 0 13 6 0 14 6 0 
15 6 0 16 6 0 17 6 0 
18 6 0 19 6 0 20 6 0 
21 6 0 22 6 0 23 6 0 
24 6 0 25 6 0 26 6 0 
27 6 0 28 6 0 29 6 0 
30 6 0 31 6 0 32 6 0 
33 6 0 34 6 0 35 6 0 
36 6 0 37 6 0 38 6 0 
39 6 0 40 6 0 41 6 0 
42 6 0 43 6 0 44 6 0 
45 6 0 46 6 0 47 6 0 
48 6 0 49 6 0 50 6 0 
0 7 0 1 7 0 2 7 0 
3 7 0 4 7 0 5 7 0 
6 7 0 7 7 0 8 7 0 
9 7 0 10 7 0 11 7 0 
12 7 0 13 7 0 14 7 0 
15 7 0 16 7 0 17 7 0 
18 7 0 19 7 0 20 7 0 
21 7 0 22 7 0 23 7 0 
24 7 0 25 7 0 26 7 0 
27 7 0 28 7 0 29 7 0 
30 7 0 31 7 0 32 7 0 
33 7 0 34 7 0 35 7 0 
36 7 0 37 7 0 38 7 0 
39 7 0 40 7 0 41 7 0 
42 7 0 43 7 0 44 7 0 
45 7 0 46 7 0 47 7 0 
48 7 0 49 7 0 50 7 0 
0 8 0 1 8 0 2 8 0 
3 8 0 4 8 0 5 8 0 
6 8 0 7 8 0 8 8 0 
9 8 0 10 8 0 11 8 0 
12 8 0 13 8 0 14 8 0 
15 8 0 16 8 0 17 8 0 
18 8 0 19 8 0 20 8 0 
21 8 0 22 8 0 23 8 0 
24 8 0 25 8 0 26 8 0 
27 8 0 28 8 0 29 8 0 
30 8 0 31 8 0 32 8 0 
33 8 0 34 8 0 35 8 0 
36 8 0 37 8 0 38 8 0 
39 8 0 40 8 0 41 8 0 
42 8 0 43 8 0 44 8 0 
45 8 0 46 8 0 47 8 0 
48 8 0 49 8 0 50 8 0 
0 9 0 1 9 0 2 9 0 
3 9 0 4 9 0 5 9 0 
6 9 0 7 9 0 8 9 0 
9 9 0 10 9 0 11 9 0 
12 9 0 13 9 0 14 9 0 
15 9 0 16 9 0 17 9 0 
18 9 0 19 9 0 20 9 0 
21 9 0 22 9 0 23 9 0 
24 9 0 25 9 0 26 9 0 
27 9 0 28 9 0 29 9 0 
30 9 0 31 9 0 32 9 0 
33 9 0 34 9 0 35 9 0 
36 9 0 37 9 0 38 9 0 
39 9 0 40 9 0 41 9 0 
42 9 0 43 9 0 44 9 0 
45 9 0 46 9 0 47 9 0 
48 9 0 49 9 0 50 9 0 
0 10 0 1 10 0 2 10 0 
3 10 0 4 10 0 5 10 0 
6 10 0 7 10 0 8 10 0 
9 10 0 10 10 0 11 10 0 
12 10 0 13 10 0 14 10 0 
15 10 0 16 10 0 17 10 0 
18 10 0 19 10 0 20 10 0 
21 10 0 22 10 0 23 10 0 
24 10 0 25 10 0 26 10 0 
27 10 0 28 10 0 29 10 0 
30 10 0 31 10 0 32 10 0 
33 10 0 34 10 0 35 10 0 
36 10 0 37 10 0 38 10 0 
39 10 0 40 10 0 41 10 0 
42 10 0 43 10 0 44 10 0 
45 10 0 46 10 0 47 10 0 
48 10 0 49 10 0 50 10 0 
0 11 0 1 11 0 2 11 0 
3 11 0 4 11 0 5 11 0 
6 11 0 7 11 0 8 11 0 
9 11 0 10 11 0 11 11 0 
12 11 0 13 11 0 14 11 0 
15 11 0 16 11 0 17 11 0 
18 11 0 19 11 0 20 11 0 
21 11 0 22 11 0 23 11 0 
24 11 0 25 11 0 26 11 0 
27 11 0 28 11 0 29 11 0 
30 11 0 31 11 0 32 11 0 
33 11 0 34 11 0 35 11 0 
36 11 0 37 11 0 38 11 0 
39 11 0 40 11 0 41 11 0 
42 11 0 43 11 0 44 11 0 
45 11 0 46 11 0 47 11 0 
48 11 0 49 11 0 50 11 0 
0 12 0 1 12 0 2 12 0 
3 12 0 4 12 0 5 12 0 
6 12 0 7 12 0 8 12 0 
9 12 0 10 12 0 11 12 0 
12 12 0 13 12 0 14 12 0 
15 12 0 16 12 0 17 12 0 
18 12 0 19 12 0 20 12 0 
21 12 0 22 12 0 23 12 0 
24 12 0 25 12 0 26 12 0 
27 12 0 28 12 0 29 12 0 
30 12 0 31 12 0 32 12 0 
33 12 0 34 12 0 35 12 0 
36 12 0 37 12 0 38 12 0 
39 12 0 40 12 0 41 12 0 
42 12 0 43 12 0 44 12 0 
45 12 0 46 12 0 47 12 0 
48 12 0 49 12 0 50 12 0 
0 13 0 1 13 0 2 13 0 
3 13 0 4 13 0 5 13 0 
6 13 0 7 13 0 8 13 0 
9 13 0 10 13 0 11 13 0 
12 13 0 13 13 0 14 13 0 
15 13 0 16 13 0 17 13 0 
18 13 0 19 13 0 20 13 0 
21 13 0 22 13 0 23 13 0 
24 13 0 25 13 0 26 13 0 
27 13 0 28 13 0 29 13 0 
30 13 0 31 13 0 32 13 0 
33 13 0 34 13 0 35 13 0 
36 13 0 37 13 0 38 13 0 
39 13 0 40 13 0 41 13 0 
42 13 0 43 13 0 44 13 0 
45 13 0 46 13 0 47 13 0 
48 13 0 49 13 0 50 13 0 
0 14 0 1 14 0 2 14 0 
3 14 0 4 14 0 5 14 0 
6 14 0 7 14 0 8 14 0 
9 14 0 10 14 0 11 14 0 
12 14 0 13 14 0 14 14 0 
15 14 0 16 14 0 17 14 0 
18 14 0 19 14 0 20 14 0 
21 14 0 22 14 0 23 14 0 
24 14 0 25 14 0 26 14 0 
27 14 0 28 14 0 29 14 0 
30 14 0 31 14 0 32 14 0 
33 14 0 34 14 0 35 14 0 
36 14 0 37 14 0 38 14 0 
39 14 0 40 14 0 41 14 0 
42 14 0 43 14 0 44 14 0 
45 14 0 46 14 0 47 14 0 
48 14 0 49 14 0 50 14 0 
0 15 0 1 15 0 2 15 0 
3 15 0 4 15 0 5 15 0 
6 15 0 7 15 0 8 15 0 
9 15 0 10 15 0 11 15 0 
12 15 0 13 15 0 14 15 0 
15 15 0 16 15 0 17 15 0 
18 15 0 19 15 0 20 15 0 
21 15 0 22 15 0 23 15 0 
24 15 0 25 15 0 26 15 0 
27 15 0 28 15 0 29 15 0 
30 15 0 31 15 0 32 15 0 
33 15 0 34 15 0 35 15 0 
36 15 0 37 15 0 38 15 0 
39 15 0 40 15 0 41 15 0 
42 15 0 43 15 0 44 15 0 
45 15 0 46 15 0 47 15 0 
48 15 0 49 15 0 50 15 0 
0 16 0 1 16 0 2 16 0 
3 16 0 4 16 0 5 16 0 
6 16 0 7 16 0 8 16 0 
9 16 0 10 16 0 11 16 0 
12 16 0 13 16 0 14 16 0 
15 16 0 16 16 0 17 16 0 
18 16 0 19 16 0 20 16 0 
21 16 0 22 16 0 23 16 0 
24 16 0 25 16 0 26 16 0 
27 16 0 28 16 0 29 16 0 
30 16 0 31 16 0 32 16 0 
33 16 0 34 16 0 35 16 0 
36 16 0 37 16 0 38 16 0 
39 16 0 40 16 0 41 16 0 
42 16 0 43 16 0 44 16 0 
45 16 0 46 16 0 47 16 0 
48 16 0 49 16 0 50 16 0 
0 17 0 1 17 0 2 17 0 
3 17 0 4 17 0 5 17 0 
6 17 0 7 17 0 8 17 0 
9 17 0 10 17 0 11 17 0 
12 17 0 13 17 0 14 17 0 
15 17 0 16 17 0 17 17 0 
18 17 0 19 17 0 20 17 0 
21 17 0 22 17 0 23 17 0 
24 17 0 25 17 0 26 17 0 
27 17 0 28 17 0 29 17 0 
30 17 0 31 17 0 32 17 0 
33 17 0 34 17 0 35 17 0 
36 17 0 37 17 0 38 17 0 
39 17 0 40 17 0 41 17 0 
42 17 0 43 17 0 44 17 0 
45 17 0 46 17 0 47 17 0 
48 17 0 49 17 0 50 17 0 
0 18 0 1 18 0 2 18 0 
3 18 0 4 18 0 5 18 0 
6 18 0 7 18 0 8 18 0 
9 18 0 10 18 0 11 18 0 
12 18 0 13 18 0 14 18 0 
15 18 0 16 18 0 17 18 0 
18 18 0 19 18 0 20 18 0 
21 18 0 22 18 0 23 18 0 
24 18 0 25 18 0 26 18 0 
27 18 0 28 18 0 29 18 0 
30 18 0 31 18 0 32 18 0 
33 18 0 34 18 0 35 18 0 
36 18 0 37 18 0 38 18 0 
39 18 0 40 18 0 41 18 0 
42 18 0 43 18 0 44 18 0 
45 18 0 46 18 0 47 18 0 
48 18 0 49 18 0 50 18 0 
0 19 0 1 19 0 2 19 0 
3 19 0 4 19 0 5 19 0 
6 19 0 7 19 0 8 19 0 
9 19 0 10 19 0 11 19 0 
12 19 0 13 19 0 14 19 0 
15 19 0 16 19 0 17 19 0 
18 19 0 19 19 0 20 19 0 
21 19 0 22 19 0 23 19 0 
24 19 0 25 19 0 26 19 0 
27 19 0 28 19 0 29 19 0 
30 19 0 31 19 0 32 19 0 
33 19 0 34 19 0 35 19 0 
36 19 0 37 19 0 38 19 0 
39 19 0 40 19 0 41 19 0 
42 19 0 43 19 0 44 19 0 
45 19 0 46 19 0 47 19 0 
48 19 0 49 19 0 50 19 0 
0 20 0 1 20 0 2 20 0 
3 20 0 4 20 0 5 20 0 
6 20 0 7 20 0 8 20 0 
9 20 0 10 20 0 11 20 0 
12 20 0 13 20 0 14 20 0 
15 20 0 16 20 0 17 20 0 
18 20 0 19 20 0 20 20 0 
21 20 0 22 20 0 23 20 0 
24 20 0 25 20 0 26 20 0 
27 20 0 28 20 0 29 20 0 
30 20 0 31 20 0 32 20 0 
33 20 0 34 20 0 35 20 0 
36 20 0 37 20 0 38 20 0 
39 20 0 40 20 0 41 20 0 
42 20 0 43 20 0 44 20 0 
45 20 0 46 20 0 47 20 0 
48 20 0 49 20 0 50 20 0 
0 21 0 1 21 0 2 21 0 
3 21 0 4 21 0 5 21 0 
6 21 0 7 21 0 8 21 0 
9 21 0 10 21 0 11 21 0 
12 21 0 13 21 0 14 21 0 
15 21 0 16 21 0 17 21 0 
18 21 0 19 21 0 20 21 0 
21 21 0 22 21 0 23 21 0 
24 21 0 25 21 0 26 21 0 
27 21 0 28 21 0 29 21 0 
30 21 0 31 21 0 32 21 0 
33 21 0 34 21 0 35 21 0 
36 21 0 37 21 0 38 21 0 
39 21 0 40 21 0 41 21 0 
42 21 0 43 21 0 44 21 0 
45 21 0 46 21 0 47 21 0 
48 21 0 49 21 0 50 21 0 
0 22 0 1 22 0 2 22 0 
3 22 0 4 22 0 5 22 0 
6 22 0 7 22 0 8 22 0 
9 22 0 10 22 0 11 22 0 
12 22 0 13 22 0 14 22 0 
15 22 0 16 22 0 17 22 0 
18 22 0 19 22 0 20 22 0 
21 22 0 22 22 0 23 22 0 
24 22 0 25 22 0 26 22 0 
27 22 0 28 22 0 29 22 0 
30 22 0 31 22 0 32 22 0 
33 22 0 34 22 0 35 22 0 
36 22 0 37 22 0 38 22 0 
39 22 0 40 22 0 41 22 0 
42 22 0 43 22 0 44 22 0 
45 22 0 46 22 0 47 22 0 
48 22 0 49 22 0 50 22 0 
0 23 0 1 23 0 2 23 0 
3 23 0 4 23 0 5 23 0 
6 23 0 7 23 0 8 23 0 
9 23 0 10 23 0 11 23 0 
12 23 0 13 23 0 14 23 0 
15 23 0 16 23 0 17 23 0 
18 23 0 19 23 0 20 23 0 
21 23 0 22 23 0 23 23 0 
24 23 0 25 23 0 26 23 0 
27 23 0 28 23 0 29 23 0 
30 23 0 31 23 0 32 23 0 
33 23 0 34 23 0 35 23 0 
36 23 0 37 23 0 38 23 0 
39 23 0 40 23 0 41 23 0 
42 23 0 43 23 0 44 23 0 
45 23 0 46 23 0 47 23 0 
48 23 0 49 23 0 50 23 0 
0 24 0 1 24 0 2 24 0 
3 24 0 4 24 0 5 24 0 
6 24 0 7 24 0 8 24 0 
9 24 0 10 24 0 11 24 0 
12 24 0 13 24 0 14 24 0 
15 24 0 16 24 0 17 24 0 
18 24 0 19 24 0 20 24 0 
21 24 0 22 24 0 23 24 0 
24 24 0 25 24 0 26 24 0 
27 24 0 28 24 0 29 24 0 
30 24 0 31 24 0 32 24 0 
33 24 0 34 24 0 35 24 0 
36 24 0 37 24 0 38 24 0 
39 24 0 40 24 0 41 24 0 
42 24 0 43 24 0 44 24 0 
45 24 0 46 24 0 47 24 0 
48 24 0 49 24 0 50 24 0 
0 25 0 1 25 0 2 25 0 
3 25 0 4 25 0 5 25 0 
[...]
CELL_DATA 2500
SCALARS $\mu_{AB} double
LOOKUP_TABLE default
-0.0023780161579 -0.0023433556248 -0.0022055793051 -0.0020878532433 -0.0020519956517 -0.0020711955527 -0.0020776839842 -0.0020141970295 -0.001907393195 
-0.0018652796593 -0.0019671239755 -0.0021801059045 -0.0023460335908 -0.0021795713817 -0.0015848103797 -0.00095863108327 -0.0006815222555 -0.0009053489021 
-0.0015131544599 -0.0021601433503 -0.0023441374291 -0.0020386170518 -0.0016185085042 -0.0014222132861 -0.0015525769152 -0.0019654591756 -0.0022873252666 
-0.0022688065233 -0.0021230992797 -0.0020506474648 -0.0020640055912 -0.0020762021567 -0.0020646503639 -0.0020957460006 -0.0021496189592 -0.0020685041894 
-0.0017965877423 -0.0015570555851 -0.0015489633982 -0.0018152381026 -0.0022120553012 -0.0024307656309 -0.0024281042597 -0.0022939416262 -0.0020914390901 
-0.0018960749981 -0.0018061011087 -0.0018771787036 -0.0020685711109 -0.0022707388616 -0.002341643985 -0.0023808591458 -0.0022960517297 -0.0021805698466 
-0.0021103474695 -0.0020897095247 -0.0020692830386 -0.0019977517844 -0.0018944617211 -0.0018550652619 -0.0019566010111 -0.0021727122474 -0.0023673191084 
-0.0023240982358 -0.0019182816812 -0.0014318438225 -0.0012098511062 -0.0013508630075 -0.0018075444669 -0.0022629999878 -0.0024405970934 -0.0023455982979 
-0.002124744179 -0.0020178163345 -0.0021238942317 -0.0023119715225 -0.002264266114 -0.0019813809423 -0.0017147165622 -0.0016510962128 -0.0018080233206 
-0.0020573182655 -0.0022500247401 -0.0023326560366 -0.002241681929 -0.0018722309932 -0.0013408929569 -0.00094066451024 -0.00092052225036 -0.0012850819801 
-0.0018550209404 -0.0023241218743 -0.0024501523871 -0.002337605651 -0.0021070567738 -0.0018591003825 -0.0017102689169 -0.001741460721 -0.001929404649 
-0.0021676908673 -0.0022273973784 -0.0022203442273 -0.0020942255653 -0.001987557091 -0.0019804673887 -0.0020470300477 -0.0021073209179 -0.0020911386642 
-0.0020081520985 -0.0019538824317 -0.0020178885758 -0.0022013025868 -0.0023903588901 -0.0024145454187 -0.0021783333284 -0.0018199704975 -0.001598005551 
-0.0016330008861 -0.0018644024739 -0.0021086507626 -0.0022702443381 -0.0023398751145 -0.0023481697535 -0.0023678883179 -0.0024304092959 -0.0024018972413 
-0.0021288397062 -0.0016966304821 -0.0013358033075 -0.0012622321676 -0.0015086439338 -0.0019027406148 -0.0022377895774 -0.0023793472365 -0.0022427730008 
-0.0017536710238 -0.0010990613733 -0.0005636083021 -0.00052275203231 -0.0010005218521 -0.0016321190461 -0.0021770541874 -0.0024218044497 -0.0023878051264 
-0.0022014700691 -0.0019619836297 -0.001786004289 -0.0017644830381 -0.00189778776 -0.0020922915893 -0.0021061174148 -0.0019682462312 -0.0017492500441 
-0.0016427571038 -0.0017317951305 -0.001949570695 -0.0021500414681 -0.0022096818738 -0.002113605726 -0.0019809164875 -0.001962770993 -0.0021129050633 
-0.0023334139096 -0.002428107759 -0.0022929060923 -0.0020080333821 -0.0017513031377 -0.0016483247694 -0.0016877731525 -0.0017851349348 -0.0018934726323 
-0.0020165785982 -0.0021723118393 -0.0023426284886 -0.0024536688611 -0.0023870591213 -0.0020701411186 -0.0016096618716 -0.0012263539725 -0.0011545603451 
-0.0014315077871 -0.0018619074748 -0.0022242066551 -0.0023942430284 -0.0023133777344 -0.0018729581016 -0.0012175946917 -0.00071287494463 -0.00066152859236 
-0.0010821355963 -0.0016531821401 -0.002097221184 -0.0023069264202 -0.0023530049479 -0.0022966043918 -0.0021512176023 -0.0019990228286 -0.001938366901 
-0.0019908511786 -0.0020862846501 -0.0020144064083 -0.0017449036505 -0.0014496329142 -0.0013437917051 -0.0015170080932 -0.0018599360968 -0.0021668740136 
-0.0022427576394 -0.0020308903601 -0.0017388850483 -0.0016258602614 -0.0017808032745 -0.0021238179625 -0.0023786566113 -0.0023542394306 -0.0021220679595 
-0.0018428484889 -0.0016418793873 -0.0015489267576 -0.0015240983288 -0.0015446112901 -0.001638007037 -0.0018331263335 -0.0021035136189 -0.0023342261286 
-0.0023686058537 -0.0021415816959 -0.0017608593543 -0.0014492315054 -0.0013997370398 -0.0016378202857 -0.0020019865135 -0.0022904514147 -0.0024366468924 
-0.0024295972737 -0.0021744951074 -0.0016577255972 -0.0012468813047 -0.0012046833486 -0.0014696959682 -0.0018153378046 -0.0019798336757 -0.0019968402691 
-0.0020548176237 -0.0021819384938 -0.0022531790754 -0.0022164791557 -0.0021586122862 -0.0021423900299 -0.0021289553344 -0.0019987505606 -0.001684899765 
-0.001377396701 -0.0012868959894 -0.0015005126872 -0.0018835294405 -0.002198207295 -0.0021844967697 -0.0018051048802 -0.0013769992195 -0.0012013977431 
-0.0013991418118 -0.0018585596002 -0.0022914025237 -0.0024237598149 -0.0022817254597 -0.0020338483911 -0.0018059910154 -0.001638770054 -0.0015161308581 
-0.0014381832534 -0.0014573998194 -0.0016207336101 -0.0018991120207 -0.0021865747572 -0.0023281191828 -0.0022342652604 -0.0019853141839 -0.0017778332868 
-0.0017694226141 -0.001964336067 -0.0022190619881 -0.002396926559 -0.0024904984921 -0.0025104368874 -0.0024107066693 -0.0021472089623 -0.0018599411002 
-0.0017919257699 -0.0018749011284 -0.0018775383751 -0.0017026146807 -0.0015379927804 -0.0015748204697 -0.0018168024065 -0.0021091547457 -0.0022723158336 
-0.0022881441137 -0.0022499957947 -0.0021779131973 -0.002054123033 -0.0018216730061 -0.0015798203885 -0.0015194216787 -0.0017093852531 -0.0020393251893 
-0.0022766466894 -0.0021519599199 -0.0016935934791 -0.0012079399337 -0.0009919696015 -0.0012331186443 -0.001742238825 -0.0022414632828 -0.0024841496783 
-0.0024452147959 -0.002280209459 -0.0020978397506 -0.0019293981502 -0.0017667398208 -0.001630362948 -0.001580129687 -0.0016692000534 -0.0018835778249 
-0.0021265971266 -0.0022613582294 -0.0021926570521 -0.0019924937743 -0.0018524962858 -0.0019074536944 -0.0021288105363 -0.0023512070134 -0.0024752598519 
-0.0025230118426 -0.0025116822361 -0.0024281598021 -0.00230337651 -0.0022148255025 -0.0021757857162 -0.0020844708112 -0.0018232467146 -0.0014417881972 
-0.0011609053925 -0.001187273028 -0.0014982290068 -0.001888890408 -0.0021594233632 -0.0022315732985 -0.0022043935984 -0.0021632802392 -0.0020694512421 
-0.0020305516612 -0.0019127446337 -0.0018771803683 -0.0020023430522 -0.0022252670961 -0.0023701885521 -0.0022291118739 -0.0018101089359 -0.0013828667872 
-0.0012097002853 -0.0014069912801 -0.0018490176857 -0.0022866744218 -0.0024880307561 -0.0024551990051 -0.0023633870448 -0.0022965779656 -0.0022254573172 
-0.0021074941624 -0.0019722097809 -0.0018923703193 -0.0019160275444 -0.0020401520287 -0.0021835666582 -0.0022089774386 -0.0020217585021 -0.0017275310474 
-0.0015554742183 -0.0016408734166 -0.0019557740829 -0.0022975943907 -0.002472439502 -0.0024831936267 -0.0023630518504 -0.002161322037 -0.0020360299669 
-0.0020839684201 -0.0022082958808 -0.0021753533926 -0.001880674255 -0.0014581532823 -0.0011507036281 -0.0011604413529 -0.0014654494681 -0.0018347438628 
-0.0020477993813 -0.0020398083232 -0.0019768456495 -0.0020057545664 -0.0019676844979 -0.0021418595582 -0.0021594404861 -0.0021175622897 -0.0021367702681 
-0.0022491588458 -0.0023788726328 -0.0023605006045 -0.0021107052549 -0.0018116816464 -0.0016970950053 -0.0018227855564 -0.0021221526763 -0.0023538383574 
-0.0023094223844 -0.0020935013825 -0.0019924402245 -0.0020838216941 -0.0022609412618 -0.0023077949999 -0.0022267972109 -0.0021367608402 -0.0021295998751 
-0.0022118242115 -0.0022864278306 -0.0021985274809 -0.0018710758156 -0.0014520298155 -0.0011958397638 -0.001283435984 -0.0016586470279 -0.0021067429358 
-0.0023700781959 -0.0023181090068 -0.0020143374287 -0.0016741670924 -0.001546866832 -0.0017065172182 -0.0020301813662 -0.0022291631968 -0.0021074182258 
-0.0017784890234 -0.0015250254132 -0.0015191078703 -0.0017302344458 -0.0019635125544 -0.0019905154457 -0.0018049993799 -0.0016623464569 -0.0017384730267 
-0.0018281857102 -0.002131950026 -0.0021946319466 -0.0020529489857 -0.0019344219183 -0.0019905208182 -0.0022021785316 -0.0023894805664 -0.0023835925475 
-0.0022415056219 -0.0021558125638 -0.002210827321 -0.0023262614038 -0.0022471822239 -0.0018704907764 -0.0015247245567 -0.0014262478699 -0.0015593057096 
-0.0019102281025 -0.0021754187005 -0.0021042830052 -0.0019654149755 -0.0019886185437 -0.0021597824584 -0.0023181366517 -0.0022415193266 -0.0018722785559 
-0.0014050261265 -0.001096343762 -0.0011638406389 -0.0015470970098 -0.0019922975345 -0.0022442340094 -0.0020869364842 -0.0016393499408 -0.0012147085328 
-0.0010838733129 -0.0013556948121 -0.0018412439031 -0.002241648857 -0.0023478833628 -0.00218813306 -0.0020055142496 -0.001987074033 -0.0021014170974 
-0.002152295577 -0.0019579483813 -0.0016086391345 -0.0013898262092 -0.0014921579517 -0.0017637736875 -0.0020865608559 -0.0020567636174 -0.0017562927775 
-0.0015393151727 -0.0016000014085 -0.0019138733838 -0.0022771990285 -0.0024492562223 -0.0023827850297 -0.0022471691815 -0.0022037257286 -0.0022148581659 
-0.0019681919961 -0.0014891563375 -0.0010636859077 -0.0009370718786 -0.0011566930445 -0.00155281739 -0.001802958444 -0.0015631226753 -0.0013576898997 
-0.0014154342704 -0.0017205608245 -0.0021406425316 -0.002294858534 -0.0020409369004 -0.0016306397238 -0.0013632721491 -0.0013989294928 -0.0017020734308 
-0.0020540371077 -0.0022007665081 -0.0019666900799 -0.0014872100138 -0.0010498248469 -0.0009441677679 -0.0012771481261 -0.0018160269119 -0.0022757077585 
-0.0024411679715 -0.0023507047912 -0.0022455619998 -0.0022646893882 -0.0023414456272 -0.0022780962236 -0.001960700117 -0.0015378680315 -0.0012829791671 
-0.0013918452721 -0.0018174679639 -0.0020771866262 -0.0019111248177 -0.0015081016385 -0.0012293120827 -0.0013168726913 -0.0017155001571 -0.0021484165624 
-0.0023234289381 -0.0021032040322 -0.0018086815732 -0.0017074740447 -0.001783065244 -0.0017509305169 -0.0013618441815 -0.00090833927475 -0.00075134826372 
-0.001053969007 -0.0014545489135 -0.0015207135303 -0.0010972353206 -0.00075134641781 -0.00077186332035 -0.0011812488388 -0.0017826390696 -0.0022737799588 
-0.0022845713571 -0.0020137869653 -0.0018098641477 -0.0018275485877 -0.0020192760381 -0.0022196371292 -0.0022499690411 -0.0020243222261 -0.0016290901649 
-0.0012910090769 -0.0012440237194 -0.0015326987267 -0.0019936152493 -0.0023106798684 -0.0022192716898 -0.0019172021942 -0.0017703264728 -0.0019415870698 
-0.0022595155169 -0.0023100059194 -0.0020331366517 -0.0016299934845 -0.001380796416 -0.0014736971226 -0.0019511641989 -0.0021320473585 -0.0019126529404 
-0.0015006625699 -0.0012280578226 -0.0013252923558 -0.0017201789264 -0.0021042689037 -0.0020799910327 -0.0016058618062 -0.0011713922716 -0.0010539205464 
-0.0012315974736 -0.0015390708402 -0.0014188318932 -0.0010986440752 -0.0010170177008 -0.001231736754 -0.0015528434961 -0.0014480971422 -0.00092140201109 
-0.00039911686092 -0.00039039870173 -0.00093113173186 -0.0015867739201 -0.0022392375551 -0.0024411387053 -0.0023189792188 -0.002173339632 -0.0021715194503 
-0.0022756844706 -0.0023609186964 -0.002338503951 -0.0021891036275 -0.0019569506366 -0.0017699152829 -0.0017675722172 -0.0019759273231 -0.0022272549541 
-0.0021234009744 -0.0016396380869 -0.0012803018367 -0.0011153885886 -0.0011840150984 -0.0017382318521 -0.0022241792591 -0.0021493563829 -0.0018324400176 
-0.00160832343 -0.0016708895093 -0.0020881395774 -0.0022171480405 -0.002055870135 -0.0017304897556 -0.0015283233793 -0.0016103979062 -0.001918119735 
-0.0021554778993 -0.0018487150733 -0.0012182235729 -0.00062610985189 -0.00046067948114 -0.00081585190706 -0.0013450305669 -0.0016423802457 -0.0015193444024 
-0.0014920194175 -0.0016488874865 -0.0018581209102 -0.0015855108956 -0.0010349115681 -0.00056985073138 -0.00056653888868 -0.0010395390604 -0.0016890415742 
-0.0023036670811 -0.0024290751734 -0.0022495450931 -0.002084108267 -0.0021148904613 -0.0022673628464 -0.0023898809097 -0.0024094044014 -0.002350987542 
-0.0022627459287 -0.0022072017521 -0.0022434951149 -0.0023447604082 -0.0022689608008 -0.0017180513596 -0.0011459637097 -0.00074355722827 -0.00057353359629 
-0.0006933159297 -0.0012398034387 -0.0020319730191 -0.0022555785015 -0.0020554870361 -0.0018621229899 -0.0018862728165 -0.0021707149562 -0.0022491261935 
-0.0021806157432 -0.0020138696442 -0.0019099831009 -0.0019883876789 -0.0022021560856 -0.0022756441058 -0.0018082379249 -0.001122001821 -0.00050808441119 
-0.00033036802395 -0.00075874840659 -0.0013799135443 -0.0019103909145 -0.0020410297857 -0.0020363469128 -0.0021612018237 -0.0022499629519 -0.0019592782439 
-0.0014640154629 -0.0011451652019 -0.0011453309602 -0.0014984536923 -0.0020690252222 -0.0023715273516 -0.0021532849223 -0.0016974265461 -0.0014786366026 
-0.0015854784612 -0.0019126014676 -0.002250362533 -0.0024122448137 -0.0024210385722 -0.0023737238629 -0.0023622169104 -0.0024199499419 -0.0024543500412 
-0.0021827499616 -0.0014675426876 -0.00091498823744 -0.00049387234964 -0.00036787004326 -0.00052721874696 -0.0011346464651 -0.0019200803925 -0.0023425728307 
-0.0022457851527 -0.002078297753 -0.0020578514344 -0.0021737599188 -0.0021901304132 -0.0021699223061 -0.0021414110436 -0.0021580158259 -0.002261467617 
-0.0024020789663 -0.0024142588788 -0.0020553954775 -0.0014041525146 -0.00090651119143 -0.0008125508548 -0.0011255701297 -0.001708735133 -0.0022279744629 
-0.002405730943 -0.0024084026109 -0.0024449375252 -0.0024819439631 -0.0023706784396 -0.0020643209584 -0.0018159966959 -0.0018238395301 -0.002109926985 
-0.0023894053724 -0.0022655784966 -0.0017043348121 -0.00110261513 -0.00081738390225 -0.00095868113454 -0.0014422105952 -0.0019876218716 -0.0023151348069 
-0.0023069898192 -0.002138142251 -0.0020584997384 -0.0021316763546 -0.0022849768772 -0.002124594913 -0.0013886590973 -0.00085335785344 -0.0004785027272 
-0.00040754967471 -0.00061562213513 -0.0012134391165 -0.0019903157642 -0.0024344857283 -0.0023834743093 -0.0022255672018 -0.0021550284302 -0.002102236295 
-0.0020879474318 -0.0020890482392 -0.0021268657668 -0.0022122072521 -0.0023278234934 -0.0024247712557 -0.0024513071925 -0.0023320047405 -0.0019609543 
-0.0015718980114 -0.0015053870171 -0.0017356902231 -0.0021570420212 -0.0024092603657 -0.0023855681377 -0.0022922689441 -0.0023052465223 -0.0024158999935 
-0.0024941180802 -0.0024508727496 -0.0023523368439 -0.0023518698242 -0.0024494237553 -0.002439349475 -0.0020964026007 -0.0014429918217 -0.00075842675794 
-0.00035933249066 -0.00058781612179 -0.0012123884059 -0.0018247786473 -0.0021605856689 -0.0019505564469 -0.0015763733832 -0.0014231778754 -0.0014781984679 
-0.0017951427383 -0.0020517687564 -0.0017060430488 -0.0011484002837 -0.00088719876483 -0.00087202205239 -0.0010256625433 -0.0015467668734 -0.0022433108465 
-0.0025158228419 -0.0024307541024 -0.0022556429982 -0.0021417006476 -0.0019777214451 -0.002012886811 -0.0020504435741 -0.0021124216898 -0.0021981254367 
-0.0022678309626 -0.002291328972 -0.0023030776234 -0.0023275140974 -0.0022948565309 -0.002155294711 -0.0021066414786 -0.0022334654113 -0.00237767901 
-0.0023032436042 -0.002047376421 -0.0018461273801 -0.0018698773066 -0.0020998590159 -0.0023589968194 -0.002492766525 -0.002503323478 -0.0024787062759 
-0.0024559710132 -0.002366972391 -0.0020501808601 -0.0014600644935 -0.00082312545925 -0.00050515185984 -0.000743734123 -0.0013169779336 -0.0018858161178 
-0.0020170806226 -0.0015257928179 -0.00098704814657 -0.00074800960318 -0.00085458383026 -0.0012882549787 -0.0018601578342 -0.0021356970944 -0.0018791796713 
-0.0015860943282 -0.0015565849524 -0.0017057715394 -0.0021376350672 -0.0024686119799 -0.0024839728267 -0.0022886824247 -0.0020699474846 -0.0019690954365 
-0.001801375834 -0.001981112829 -0.0020939658055 -0.0021624806036 -0.0021919649285 -0.0021453902422 -0.0020443804938 -0.0020002023289 -0.0020751974733 
-0.0022209904375 -0.0023280152075 -0.0023759448081 -0.0024036295428 -0.0023170560823 -0.0020081830968 -0.0015850491058 -0.0013004426181 -0.0013432537709 
-0.0016885714342 -0.0021101465925 -0.0023798039749 -0.0024403443373 -0.0023734107801 -0.0022846692925 -0.0022222263866 -0.00208685858 -0.0017281757124 
-0.00129105497 -0.0011171257364 -0.0012994073303 -0.0017573082722 -0.0021716863686 -0.0019702038259 -0.0013116738935 -0.00066560952837 -0.00029005842691 
-0.0005085730525 -0.0011006277635 -0.0017662566024 -0.002317141519 -0.0023852922815 -0.0022880670878 -0.0022542389789 -0.0023398738398 -0.0024754671547 
-0.0024761980047 -0.0022505891613 -0.0018981410844 -0.0016538279269 -0.0016368784175 -0.0016038028344 -0.0019648156687 -0.0021794229524 -0.0022416804476 
-0.0021763875043 -0.0019870592666 -0.0017665622738 -0.0016638372326 -0.0017556030677 -0.0019881387007 -0.0022291955123 -0.0023745198346 -0.0023862910719 
-0.0022047971482 -0.0017960941992 -0.0012936724592 -0.00094813702729 -0.0010016024993 -0.0014154124197 -0.0019195970055 -0.0022533841003 -0.0022986523329 
-0.0021438707825 -0.0019793837965 -0.0019474918134 -0.0020175507973 -0.0020163377825 -0.0018652778599 -0.0017940926621 -0.0019662405293 -0.0022913003117 
-0.0024388557136 -0.0021060871109 -0.0013750616114 -0.00074085905011 -0.00040784030321 -0.00060622531523 -0.0012168614911 -0.0018899439474 -0.0023510075326 
-0.0023963169314 -0.0023360242771 -0.0023326201805 -0.0024029174061 -0.0024509917864 -0.0023063140368 -0.0019072489492 -0.0014557493111 -0.0011963683984 
-0.0012665950408 -0.0015168051619 -0.0019790126201 -0.002244855501 -0.0022630041483 -0.002107874006 -0.0018439342387 -0.0015804507332 -0.0014574634395 
-0.0015613584078 -0.0018337002383 -0.0021294084648 -0.002328691359 -0.0023746708194 -0.0022186789595 -0.0018352225713 -0.0013568942525 -0.0010278060305 
-0.0010598773785 -0.0014283176063 -0.0018938718273 -0.0021778975144 -0.0021316359686 -0.0018673118179 -0.0016292818519 -0.001606954062 -0.0018093394447 
-0.0020794818685 -0.0022481026006 -0.0023183227585 -0.0023844615489 -0.0024470314412 -0.0024636294886 -0.0023054498413 -0.0017614054796 -0.0012008769799 
-0.00098463176114 -0.0011145332798 -0.0015869999196 -0.002113824094 -0.0023036833531 -0.002202500087 -0.00208102521 -0.0020751574813 -0.0021854074041 
-0.0022789297228 -0.0021266259102 -0.0016930672322 -0.0012048660827 -0.00093010472285 -0.0010767448836 -0.0016458870215 -0.0020679418048 -0.0022276346915 
-0.0021399847868 -0.001957443183 -0.0017451231037 -0.0015511820405 -0.0014760160861 -0.0015937008834 -0.0018568821681 -0.0021341200625 -0.0023244587415 
-0.0024000458949 -0.0023307851823 -0.0020701018021 -0.0016998685785 -0.0014351465432 -0.0014305883965 -0.0016795257386 -0.0019992405164 -0.0021503526246 
-0.0020150267538 -0.0016926207878 -0.001413867825 -0.0013924354302 -0.0016608916954 -0.0020420355779 -0.0023208471328 -0.002361941419 -0.0022091864941 
-0.0020772845433 -0.0021088535447 -0.0022351613501 -0.0021941611287 -0.0018687949461 -0.0016780171734 -0.001754741267 -0.0020500139854 -0.0022733886628 
-0.0022155859954 -0.001996961195 -0.001815810137 -0.0018042823764 -0.0019594336557 -0.0021322513902 -0.0020753882537 -0.0017179646222 -0.0012835581974 
-0.0010621676437 -0.0012217944934 -0.0019463395403 -0.0021563862125 -0.0020945754463 -0.0019107677862 -0.0017547799047 -0.0016655604546 -0.0016266011246 
-0.001655388404 -0.0017906522729 -0.0020014609225 -0.0021972111673 -0.0023318423663 -0.0024080671496 -0.0024061387414 -0.0022771743243 -0.0020404480277 
-0.001841653285 -0.0018042627122 -0.0019266261616 -0.002093071327 -0.002159969918 -0.0020286062095 -0.0017360370499 -0.001476347081 -0.0014591163087 
-0.0017209332158 -0.002082675278 -0.0022769683944 -0.0020958174712 -0.0016849502318 -0.0014412913821 -0.0015175320168 -0.0018567966189 -0.0022230758646 
-0.0023296703708 -0.0022520208764 -0.0022318938001 -0.0022796536264 -0.0022709037017 -0.0021335844524 -0.0019013727103 -0.001712366941 -0.0016954120258 
-0.001859333109 -0.0020763995555 -0.0021407419681 -0.0019399128581 -0.0016395718379 -0.0014991218689 -0.0016286120427 -0.0021863851552 -0.0021491698838 
-0.001947020643 -0.0017239964698 -0.0016061684768 -0.0016283945336 -0.0017333813857 -0.001861161961 -0.0019969036763 -0.002126360165 -0.0022291491047 