# vtk DataFile Version 4.2
vtk output
ASCII
DATASET UNSTRUCTURED_GRID
POINTS 2601 double
0 0 0 1 0 0 2 0 0 
3 0 0 4 0 0 5 0 0 
6 0 0 7 0 0 8 0 0 
9 0 0 10 0 0 11 0 0 
12 0 0 13 0 0 14 0 0 
15 0 0 16 0 0 17 0 0 
18 0 0 19 0 0 20 0 0 
21 0 0 22 0 0 23 0 0 
24 0 0 25 0 0 26 0 0 
27 0 0 28 0 0 29 0 0 
30 0 0 31 0 0 32 0 0 
33 0 0 34 0 0 35 0 0 
36 0 0 37 0 0 38 0 0 
39 0 0 40 0 0 41 0 0 
42 0 0 43 0 0 44 0 0 
45 0 0 46 0 0 47 0 0 
48 0 0 49 0 0 50 0 0 
0 1 0 1 1 0 2 1 0 
3 1 0 4 1 0 5 1 0 
6 1 0 7 1 0 8 1 0 
9 1 0 10 1 0 11 1 0 
12 1 0 13 1 0 14 1 0 
15 1 0 16 1 0 17 1 0 
18 1 0 19 1 0 20 1 0 
21 1 0 22 1 0 23 1 0 
24 1 0 25 1 0 26 1 0 
27 1 0 28 1 0 29 1 0 
30 1 0 31 1 0 32 1 0 
33 1 0 34 1 0 35 1 0 
36 1 0 37 1 0 38 1 0 
39 1 0 40 1 0 41 1 0 
42 1 0 43 1 0 44 1 0 
45 1 0 46 1 0 47 1 0 
48 1 0 49 1 0 50 1 0 
0 2 0 1 2 0 2 2 0 
3 2 0 4 2 0 5 2 0 
6 2 0 7 2 0 8 2 0 
9 2 0 10 2 0 11 2 0 
12 2 0 13 2 0 14 2 0 
15 2 0 16 2 0 17 2 0 
18 2 0 19 2 0 20 2 0 
21 2 0 22 2 0 23 2 0 
24 2 0 25 2 0 26 2 0 
27 2 0 28 2 0 29 2 0 
30 2 0 31 2 0 32 2 0 
33 2 0 34 2 0 35 2 0 
36 2 0 37 2 0 38 2 0 
39 2 0 40 2 0 41 2 0 
42 2 0 43 2 0 44 2 0 
45 2 0 46 2 0 47 2 0 
48 2 0 49 2 0 50 2 0 
0 3 0 1 3 0 2 3 0 
3 3 0 4 3 0 5 3 0 
6 3 0 7 3 0 8 3 0 
9 3 0 10 3 0 11 3 0 
12 3 0 13 3 0 14 3 0 
15 3 0 16 3 0 17 3 0 
18 3 0 19 3 0 20 3 0 
21 3 0 22 3 0 23 3 0 
24 3 0 25 3 0 26 3 0 
27 3 0 28 3 0 29 3 0 
30 3 0 31 3 0 32 3 0 
33 3 0 34 3 0 35 3 0 
36 3 0 37 3 0 38 3 0 
39 3 0 40 3 0 41 3 0 
42 3 0 43 3 0 44 3 0 
45 3 0 46 3 0 47 3 0 
48 3 0 49 3 0 50 3 0 
0 4 0 1 4 0 2 4 0 
3 4 0 4 4 0 5 4 0 
6 4 0 7 4 0 8 4 0 
9 4 0 10 4 0 11 4 0 
12 4 0 13 4 0 14 4 0 
15 4 0 16 4 0 17 4 0 
18 4 0 19 4 0 20 4 0 
21 4 0 22 4 0 23 4 0 
24 4 0 25 4 0 26 4 0 
27 4 0 28 4 0 29 4 0 
30 4 0 31 4 0 32 4 0 
33 4 0 34 4 0 35 4 0 
36 4 0 37 4 0 38 4 0 
39 4 0 40 4 0 41 4 0 
42 4 0 43 4 0 44 4 0 
45 4 0 46 4 0 47 4 0 
48 4 0 49 4 0 50 4 0 
0 5 0 1 5 0 2 5 0 
3 5 0 4 5 0 5 5 0 
6 5 0 7 5 0 8 5 0 
9 5 0 10 5 0 11 5 0 
12 5 0 13 5 0 14 5 0 
15 5 0 16 5 0 17 5 0 
18 5 0 19 5 0 20 5 0 
21 5 0 22 5 0 23 5 0 
24 5 0 25 5 0 26 5 0 
27 5 0 28 5 0 29 5 0 
30 5 0 31 5 0 32 5 0 
33 5 0 34 5 0 35 5 0 
36 5 0 37 5 0 38 5 0 
39 5 0 40 5 0 41 5 0 
42 5 0 43 5 0 44 5 0 
45 5 0 46 5 0 47 5 0 
48 5 0 49 5 0 50 5 0 
0 6 0 1 6 0 2 6 0 
3 6 0 4 6 0 5 6 0 
6 6 0 7 6 0 8 6 0 
9 6 0 10 6 0 11 6 0 
12 6 0 13 6 0 14 6 0 
15 6 0 16 6 0 17 6 0 
18 6 0 19 6 0 20 6 0 
21 6 0 22 6 0 23 6 0 
24 6 0 25 6 0 26 6 0 
27 6 0 28 6 0 29 6 0 
30 6 0 31 6 0 32 6 0 
33 6 0 34 6 0 35 6 0 
36 6 0 37 6 0 38 6 0 
39 6 0 40 6 0 41 6 0 
42 6 0 43 6 0 44 6 0 
45 6 0 46 6 0 47 6 0 
48 6 0 49 6 0 50 6 0 
0 7 0 1 7 0 2 7 0 
3 7 0 4 7 0 5 7 0 
6 7 0 7 7 0 8 7 0 
9 7 0 10 7 0 11 7 0 
12 7 0 13 7 0 14 7 0 
15 7 0 16 7 0 17 7 0 
18 7 0 19 7 0 20 7 0 
21 7 0 22 7 0 23 7 0 
24 7 0 25 7 0 26 7 0 
27 7 0 28 7 0 29 7 0 
30 7 0 31 7 0 32 7 0 
33 7 0 34 7 0 35 7 0 
36 7 0 37 7 0 38 7 0 
39 7 0 40 7 0 41 7 0 
42 7 0 43 7 0 44 7 0 
45 7 0 46 7 0 47 7 0 
48 7 0 49 7 0 50 7 0 
0 8 0 1 8 0 2 8 0 
3 8 0 4 8 0 5 8 0 
6 8 0 7 8 0 8 8 0 
9 8 0 10 8 0 11 8 0 
12 8 0 13 8 0 14 8 0 
15 8 0 16 8 0 17 8 0 
18 8 0 19 8 0 20 8 0 
21 8 0 22 8 0 23 8 0 
24 8 0 25 8 0 26 8 0 
27 8 0 28 8 0 29 8 0 
30 8 0 31 8 0 32 8 0 
33 8 0 34 8 0 35 8 0 
36 8 0 37 8 0 38 8 0 
39 8 0 40 8 0 41 8 0 
42 8 0 43 8 0 44 8 0 
45 8 0 46 8 0 47 8 0 
48 8 0 49 8 0 50 8 0 
0 9 0 1 9 0 2 9 0 
3 9 0 4 9 0 5 9 0 
6 9 0 7 9 0 8 9 0 
9 9 0 10 9 0 11 9 0 
12 9 0 13 9 0 14 9 0 
15 9 0 16 9 0 17 9 0 
18 9 0 19 9 0 20 9 0 
21 9 0 22 9 0 23 9 0 
24 9 0 25 9 0 26 9 0 
27 9 0 28 9 0 29 9 0 
30 9 0 31 9 0 32 9 0 
33 9 0 34 9 0 35 9 0 
36 9 0 37 9 0 38 9 0 
39 9 0 40 9 0 41 9 0 
42 9 0 43 9 0 44 9 0 
45 9 0 46 9 0 47 9 0 
48 9 0 49 9 0 50 9 0 
0 10 0 1 10 0 2 10 0 
3 10 0 4 10 0 5 10 0 
6 10 0 7 10 0 8 10 0 
9 10 0 10 10 0 11 10 0 
12 10 0 13 10 0 14 10 0 
15 10 0 16 10 0 17 10 0 
18 10 0 19 10 0 20 10 0 
21 10 0 22 10 0 23 10 0 
24 10 0 25 10 0 26 10 0 
27 10 0 28 10 0 29 10 0 
30 10 0 31 10 0 32 10 0 
33 10 0 34 10 0 35 10 0 
36 10 0 37 10 0 38 10 0 
39 10 0 40 10 0 41 10 0 
42 10 0 43 10 0 44 10 0 
45 10 0 46 10 0 47 10 0 
48 10 0 49 10 0 50 10 0 
0 11 0 1 11 0 2 11 0 
3 11 0 4 11 0 5 11 0 
6 11 0 7 11 0 8 11 0 
9 11 0 10 11 0 11 11 0 
12 11 0 13 11 0 14 11 0 
15 11 0 16 11 0 17 11 0 
18 11 0 19 11 0 20 11 0 
21 11 0 22 11 0 23 11 0 
24 11 0 25 11 0 26 11 0 
27 11 0 28 11 0 29 11 0 
30 11 0 31 11 0 32 11 0 
33 11 0 34 11 0 35 11 0 
36 11 0 37 11 0 38 11 0 
39 11 0 40 11 0 41 11 0 
42 11 0 43 11 0 44 11 0 
45 11 0 46 11 0 47 11 0 
48 11 0 49 11 0 50 11 0 
0 12 0 1 12 0 2 12 0 
3 12 0 4 12 0 5 12 0 
6 12 0 7 12 0 8 12 0 
9 12 0 10 12 0 11 12 0 
12 12 0 13 12 0 14 12 0 
15 12 0 16 12 0 17 12 0 
18 12 0 19 12 0 20 12 0 
21 12 0 22 12 0 23 12 0 
24 12 0 25 12 0 26 12 0 
27 12 0 28 12 0 29 12 0 
30 12 0 31 12 0 32 12 0 
33 12 0 34 12 0 35 12 0 
36 12 0 37 12 0 38 12 0 
39 12 0 40 12 0 41 12 0 
42 12 0 43 12 0 44 12 0 
45 12 0 46 12 0 47 12 0 
48 12 0 49 12 0 50 12 0 
0 13 0 1 13 0 2 13 0 
3 13 0 4 13 0 5 13 0 
6 13 0 7 13 0 8 13 0 
9 13 0 10 13 0 11 13 0 
12 13 0 13 13 0 14 13 0 
15 13 0 16 13 0 17 13 0 
18 13 0 19 13 0 20 13 0 
21 13 0 22 13 0 23 13 0 
24 13 0 25 13 0 26 13 0 
27 13 0 28 13 0 29 13 0 
30 13 0 31 13 0 32 13 0 
33 13 0 34 13 0 35 13 0 
36 13 0 37 13 0 38 13 0 
39 13 0 40 13 0 41 13 0 
42 13 0 43 13 0 44 13 0 
45 13 0 46 13 0 47 13 0 
48 13 0 49 13 0 50 13 0 
0 14 0 1 14 0 2 14 0 
3 14 0 4 14 0 5 14 0 
6 14 0 7 14 0 8 14 0 
9 14 0 10 14 0 11 14 0 
12 14 0 13 14 0 14 14 0 
15 14 0 16 14 0 17 14 0 
18 14 0 19 14 0 20 14 0 
21 14 0 22 14 0 23 14 0 
24 14 0 25 14 0 26 14 0 
27 14 0 28 14 0 29 14 0 
30 14 0 31 14 0 32 14 0 
33 14 0 34 14 0 35 14 0 
36 14 0 37 14 0 38 14 0 
39 14 0 40 14 0 41 14 0 
42 14 0 43 14 0 44 14 0 
45 14 0 46 14 0 47 14 0 
48 14 0 49 14 0 50 14 0 
0 15 0 1 15 0 2 15 0 
3 15 0 4 15 0 5 15 0 
6 15 0 7 15 0 8 15 0 
9 15 0 10 15 0 11 15 0 
12 15 0 13 15 0 14 15 0 
15 15 0 16 15 0 17 15 0 
18 15 0 19 15 0 20 15 0 
21 15 0 22 15 0 23 15 0 
24 15 0 25 15 0 26 15 0 
27 15 0 28 15 0 29 15 0 
30 15 0 31 15 0 32 15 0 
33 15 0 34 15 0 35 15 0 
36 15 0 37 15 0 38 15 0 
39 15 0 40 15 0 41 15 0 
42 15 0 43 15 0 44 15 0 
45 15 0 46 15 0 47 15 0 
48 15 0 49 15 0 50 15 0 
0 16 0 1 16 0 2 16 0 
3 16 0 4 16 0 5 16 0 
6 16 0 7 16 0 8 16 0 
9 16 0 10 16 0 11 16 0 
12 16 0 13 16 0 14 16 0 
15 16 0 16 16 0 17 16 0 
18 16 0 19 16 0 20 16 0 
21 16 0 22 16 0 23 16 0 
24 16 0 25 16 0 26 16 0 
27 16 0 28 16 0 29 16 0 
30 16 0 31 16 0 32 16 0 
33 16 0 34 16 0 35 16 0 
36 16 0 37 16 0 38 16 0 
39 16 0 40 16 0 41 16 0 
42 16 0 43 16 0 44 16 0 
45 16 0 46 16 0 47 16 0 
48 16 0 49 16 0 50 16 0 
0 17 0 1 17 0 2 17 0 
3 17 0 4 17 0 5 17 0 
6 17 0 7 17 0 8 17 0 
9 17 0 10 17 0 11 17 0 
12 17 0 13 17 0 14 17 0 
15 17 0 16 17 0 17 17 0 
18 17 0 19 17 0 20 17 0 
21 17 0 22 17 0 23 17 0 
24 17 0 25 17 0 26 17 0 
27 17 0 28 17 0 29 17 0 
30 17 0 31 17 0 32 17 0 
33 17 0 34 17 0 35 17 0 
36 17 0 37 17 0 38 17 0 
39 17 0 40 17 0 41 17 0 
42 17 0 43 17 0 44 17 0 
45 17 0 46 17 0 47 17 0 
48 17 0 49 17 0 50 17 0 
0 18 0 1 18 0 2 18 0 
3 18 0 4 18 0 5 18 0 
6 18 0 7 18 0 8 18 0 
9 18 0 10 18 0 11 18 0 
12 18 0 13 18 0 14 18 0 
15 18 0 16 18 0 17 18 0 
18 18 0 19 18 0 20 18 0 
21 18 0 22 18 0 23 18 0 
24 18 0 25 18 0 26 18 0 
27 18 0 28 18 0 29 18 0 
30 18 0 31 18 0 32 18 0 
33 18 0 34 18 0 35 18 0 
36 18 0 37 18 0 38 18 0 
39 18 0 40 18 0 41 18 0 
42 18 0 43 18 0 44 18 0 
45 18 0 46 18 0 47 18 0 
48 18 0 49 18 0 50 18 0 
0 19 0 1 19 0 2 19 0 
3 19 0 4 19 0 5 19 0 
6 19 0 7 19 0 8 19 0 
9 19 0 10 19 0 11 19 0 
12 19 0 13 19 0 14 19 0 
15 19 0 16 19 0 17 19 0 
18 19 0 19 19 0 20 19 0 
21 19 0 22 19 0 23 19 0 
24 19 0 25 19 0 26 19 0 
27 19 0 28 19 0 29 19 0 
30 19 0 31 19 0 32 19 0 
33 19 0 34 19 0 35 19 0 
36 19 0 37 19 0 38 19 0 
39 19 0 40 19 0 41 19 0 
42 19 0 43 19 0 44 19 0 
45 19 0 46 19 0 47 19 0 
48 19 0 49 19 0 50 19 0 
0 20 0 1 20 0 2 20 0 
3 20 0 4 20 0 5 20 0 
6 20 0 7 20 0 8 20 0 
9 20 0 10 20 0 11 20 0 
12 20 0 13 20 0 14 20 0 
15 20 0 16 20 0 17 20 0 
18 20 0 19 20 0 20 20 0 
21 20 0 22 20 0 23 20 0 
24 20 0 25 20 0 26 20 0 
27 20 0 28 20 0 29 20 0 
30 20 0 31 20 0 32 20 0 
33 20 0 34 20 0 35 20 0 
36 20 0 37 20 0 38 20 0 
39 20 0 40 20 0 41 20 0 
42 20 0 43 20 0 44 20 0 
45 20 0 46 20 0 47 20 0 
48 20 0 49 20 0 50 20 0 
0 21 0 1 21 0 2 21 0 
3 21 0 4 21 0 5 21 0 
6 21 0 7 21 0 8 21 0 
9 21 0 10 21 0 11 21 0 
12 21 0 13 21 0 14 21 0 
15 21 0 16 21 0 17 21 0 
18 21 0 19 21 0 20 21 0 
21 21 0 22 21 0 23 21 0 
24 21 0 25 21 0 26 21 0 
27 21 0 28 21 0 29 21 0 
30 21 0 31 21 0 32 21 0 
33 21 0 34 21 0 35 21 0 
36 21 0 37 21 0 38 21 0 
39 21 0 40 21 0 41 21 0 
42 21 0 43 21 0 44 21 0 
45 21 0 46 21 0 47 21 0 
48 21 0 49 21 0 50 21 0 
0 22 0 1 22 0 2 22 0 
3 22 0 4 22 0 5 22 0 
6 22 0 7 22 0 8 22 0 
9 22 0 10 22 0 11 22 0 
12 22 0 13 22 0 14 22 0 
15 22 0 16 22 0 17 22 0 
18 22 0 19 22 0 20 22 0 
21 22 0 22 22 0 23 22 0 
24 22 0 25 22 0 26 22 0 
27 22 0 28 22 0 29 22 0 
30 22 0 31 22 0 32 22 0 
33 22 0 34 22 0 35 22 0 
36 22 0 37 22 0 38 22 0 
39 22 0 40 22 0 41 22 0 
42 22 0 43 22 0 44 22 0 
45 22 0 46 22 0 47 22 0 
48 22 0 49 22 0 50 22 0 
0 23 0 1 23 0 2 23 0 
3 23 0 4 23 0 5 23 0 
6 23 0 7 23 0 8 23 0 
9 23 0 10 23 0 11 23 0 
12 23 0 13 23 0 14 23 0 
15 23 0 16 23 0 17 23 0 
18 23 0 19 23 0 20 23 0 
21 23 0 22 23 0 23 23 0 
24 23 0 25 23 0 26 23 0 
27 23 0 28 23 0 29 23 0 
30 23 0 31 23 0 32 23 0 
33 23 0 34 23 0 35 23 0 
36 23 0 37 23 0 38 23 0 
39 23 0 40 23 0 41 23 0 
42 23 0 43 23 0 44 23 0 
45 23 0 46 23 0 47 23 0 
48 23 0 49 23 0 50 23 0 
0 24 0 1 24 0 2 24 0 
3 24 0 4 24 0 5 24 0 
6 24 0 7 24 0 8 24 0 
9 24 0 10 24 0 11 24 0 
12 24 0 13 24 0 14 24 0 
15 24 0 16 24 0 17 24 0 
18 24 0 19 24 0 20 24 0 
21 24 0 22 24 0 23 24 0 
24 24 0 25 24 0 26 24 0 
27 24 0 28 24 0 29 24 0 
30 24 0 31 24 0 32 24 0 
33 24 0 34 24 0 35 24 0 
36 24 0 37 24 0 38 24 0 
39 24 0 40 24 0 41 24 0 
42 24 0 43 24 0 44 24 0 
45 24 0 46 24 0 47 24 0 
48 24 0 49 24 0 50 24 0 
0 25 0 1 25 0 2 25 0 
3 25 0 4 25 0 5 25 0 
[...]
CELL_DATA 2500
SCALARS $\mu_{AB} double
LOOKUP_TABLE default
-0.002305727472 -0.0022243193244 -0.0020901366294 -0.0021011561752 -0.0022141110355 -0.0022836504231 -0.0022040024252 -0.0019907831824 -0.0017900393899 
-0.0017511974998 -0.0019171164633 -0.0021831979783 -0.0023273988444 -0.0019560843488 -0.0012014874341 -0.00065933168899 -0.00047960189031 -0.00057898961044 
-0.0010213254282 -0.001719677835 -0.0020989531024 -0.0018008344604 -0.0014135489361 -0.0012338558438 -0.0012371002037 -0.0016112218084 -0.002126930231 
-0.0021861005109 -0.0020468363094 -0.0020157415028 -0.0020848333338 -0.0020775650846 -0.0019669701978 -0.0019627157465 -0.0020819831928 -0.0020120116391 
-0.0016193635441 -0.0013185531102 -0.0012281296841 -0.0014293286024 -0.002002534761 -0.0024113186506 -0.0024924590322 -0.0023733643554 -0.0021127650224 
-0.0018055393781 -0.0016207307517 -0.0016765803081 -0.0019263673724 -0.0021951499686 -0.0023475190329 -0.0023732077622 -0.0022837560445 -0.0022500197354 
-0.002288390845 -0.0022986511833 -0.0021950644404 -0.0019921753343 -0.0018074274775 -0.001769444748 -0.0019236008239 -0.0021862895128 -0.0023794487326 
-0.0022429029307 -0.0016618149195 -0.0011906180831 -0.0010340977261 -0.0010855862172 -0.0014751120961 -0.0020399845288 -0.0023237385544 -0.0022543325894 
-0.0019983917369 -0.001872958417 -0.0019431953329 -0.0022119420391 -0.002167038349 -0.0017873912834 -0.0014538431249 -0.0013878429966 -0.0016081235198 
-0.0019875597114 -0.0022663949616 -0.002365164938 -0.00221204698 -0.0016659205212 -0.0010486913832 -0.00064231513109 -0.00057817694704 -0.00086908100871 
-0.0014814292294 -0.0022176828707 -0.002483210581 -0.0023812635139 -0.0020760918955 -0.0017050744106 -0.0014587586934 -0.001494438117 -0.0017758795133 
-0.0021204417757 -0.0022951184864 -0.0022137736045 -0.0019845996141 -0.0019065849236 -0.0020182986674 -0.0021712239766 -0.0022137004222 -0.0021178301019 
-0.0019776479275 -0.0019185172933 -0.0020075121306 -0.0022197937611 -0.0024212211184 -0.0024264133935 -0.0021339659407 -0.0017540489375 -0.0015523305472 
-0.0015463887813 -0.0017356018645 -0.0019612375597 -0.0021537635264 -0.0022771453571 -0.0023281204327 -0.0023677885337 -0.0024494041186 -0.002412587428 
-0.0020152245946 -0.0014275739103 -0.00091407242404 -0.0007852143851 -0.0011327863019 -0.0017150265083 -0.0022548798754 -0.0024723084188 -0.0022189893048 
-0.0015132150542 -0.0007952093363 -0.00025725848345 -0.00024126920401 -0.00070055767096 -0.0013430661229 -0.0020250939371 -0.002424444513 -0.0024045735508 
-0.0021501843354 -0.0018049050075 -0.0015606691706 -0.0015667945025 -0.0018131791953 -0.0021223714879 -0.0021832025902 -0.0018647156247 -0.0014653346294 
-0.0013469299818 -0.0015519496669 -0.0019195557147 -0.0021976175275 -0.0022453932076 -0.0020976720678 -0.0019153340991 -0.0018743038534 -0.0020322679591 
-0.0023156059989 -0.0024669119952 -0.0023556480841 -0.0020790384588 -0.001811861815 -0.0016515761483 -0.0016051387294 -0.0016294977385 -0.0017098149837 
-0.0018510959061 -0.0020693351056 -0.0023293683137 -0.0025037463249 -0.0024229840318 -0.0019736277504 -0.00134595392 -0.00076446624885 -0.00061130267329 
-0.0010268810679 -0.0016832017664 -0.002279762526 -0.0025435904374 -0.0023582672705 -0.0016230943465 -0.0008354121236 -0.00033570352843 -0.00036950011702 
-0.00084424403562 -0.0014696464973 -0.0020036131214 -0.0022635966752 -0.0023108379909 -0.0022405134868 -0.0020379546771 -0.0018534806991 -0.0018393524902 
-0.0019977670555 -0.0021845636259 -0.0020340137952 -0.0015278026613 -0.0010203862335 -0.00086519333138 -0.0011711632161 -0.0016950859098 -0.0021299871644 
-0.00222289026 -0.0018919549935 -0.0015006003693 -0.0013628611039 -0.0015085026822 -0.0019590231836 -0.0023851658037 -0.0024373908583 -0.0022170383507 
-0.0019060471544 -0.0016232196184 -0.0014195139659 -0.0012982614034 -0.0012686957408 -0.0013691749833 -0.0016204213981 -0.0019896023255 -0.0023356894711 
-0.002419377608 -0.0021073951213 -0.001567590658 -0.0011114232955 -0.0010039004198 -0.0013301299139 -0.0019220780672 -0.0024208426211 -0.0026379471266 
-0.0025668658843 -0.0020560432547 -0.0012516147967 -0.00085317670839 -0.00092847177273 -0.001289098294 -0.0017652777725 -0.0019272468486 -0.0018116140807 
-0.0018134522413 -0.0020168756732 -0.0021740809738 -0.0021571716812 -0.0021430711386 -0.0022065466561 -0.0022404477746 -0.0019805300584 -0.001448544201 
-0.00093965243693 -0.00079349960874 -0.0011415128618 -0.001693192383 -0.0021263799075 -0.0020650991461 -0.0015321798271 -0.0010249549167 -0.00082821057179 
-0.0010398965533 -0.0015906252845 -0.0022177273426 -0.0024883057357 -0.0023547307698 -0.0020536551801 -0.001732863923 -0.0014536841639 -0.0012350256798 
-0.0011056164766 -0.0011406177236 -0.0013859947815 -0.0017712374424 -0.0021681449867 -0.0023947780079 -0.0022937469216 -0.0019358747991 -0.0016107637043 
-0.0015521926714 -0.0018233376518 -0.0022637663492 -0.0025703787994 -0.0027018345848 -0.0026838364651 -0.0024493282514 -0.0019299830475 -0.0015096993203 
-0.0015736396554 -0.0018409599081 -0.0019102310658 -0.0015761922237 -0.0012502245092 -0.0012191686443 -0.0015224282653 -0.0019825889267 -0.0022704739927 
-0.0023277349189 -0.0023276516869 -0.0022687980045 -0.0020831319941 -0.0016890143345 -0.001300791856 -0.00121298899 -0.0014769124491 -0.0019279013002 
-0.0022394176004 -0.0019921513146 -0.0014153190436 -0.00085288022646 -0.00058662953709 -0.00088561361311 -0.0014782575597 -0.0021095363197 -0.0025027368867 
-0.0024751325609 -0.0022522016353 -0.0019797705613 -0.00171445435 -0.001480635639 -0.0013300326945 -0.0013303915706 -0.0015230300884 -0.0018532972848 
-0.0021854359308 -0.0023682681696 -0.0022733579734 -0.0019752330469 -0.0017424530457 -0.0017623050762 -0.0020660301303 -0.0024222491304 -0.0026254849566 
-0.0026962459464 -0.0026517734813 -0.0024701507864 -0.0022336189477 -0.0021229964036 -0.002175039135 -0.002159786156 -0.0018173011086 -0.0012454777377 
-0.0007661288016 -0.00075566595411 -0.0012024143736 -0.0017718930972 -0.0021915458176 -0.0022946032662 -0.002261100797 -0.0022383235168 -0.002147283752 
-0.0020680010457 -0.0018528722796 -0.0017909626085 -0.0019507880693 -0.002235474325 -0.0023830560702 -0.0021066549568 -0.001556660221 -0.0010741975636 
-0.00089490095182 -0.0010938024257 -0.0015818283145 -0.002129330174 -0.0024292231782 -0.0023794714731 -0.0022403041819 -0.0021212935818 -0.0020002633074 
-0.0018503554632 -0.0017440024969 -0.0017602099505 -0.0019103475918 -0.0021438595839 -0.0023453422281 -0.0023466479626 -0.0020304947534 -0.0015829556897 
-0.0013174961215 -0.0013528640512 -0.0017324115753 -0.0022638446711 -0.0025507590636 -0.0025727795276 -0.0023662835697 -0.0020160947466 -0.0018555971805 
-0.0019881543261 -0.0022697802308 -0.0022763599209 -0.0018434177128 -0.0012240903182 -0.00073849350426 -0.00075193059046 -0.0012396326051 -0.0018039530546 
-0.0021338399142 -0.0020806977648 -0.0019581701878 -0.0020170250606 -0.0019695223541 -0.0022434918154 -0.002250400356 -0.0021724463355 -0.0021694917234 
-0.0022688821941 -0.0023939631437 -0.0023217477507 -0.0019475384724 -0.0015780791414 -0.0014588867986 -0.0015545405807 -0.0018850447121 -0.0021845032899 
-0.0021144447569 -0.0018268261559 -0.0016973687223 -0.0017612161963 -0.0019836391883 -0.0020722302671 -0.0020412230392 -0.0020585816693 -0.0021855545443 
-0.0023664828462 -0.0024678524106 -0.0022870178256 -0.0017718215419 -0.0011822260723 -0.00080440112232 -0.00087253438499 -0.0013243190514 -0.0019238570014 
-0.0023468378326 -0.0022496958632 -0.0017477844327 -0.0013165730532 -0.0012489570346 -0.0015183447965 -0.0020133277609 -0.0023198072505 -0.0020705594459 
-0.0015239236103 -0.0011613543053 -0.0011900024642 -0.0015545278712 -0.0019826966351 -0.0020517681046 -0.0017367432329 -0.0015094885737 -0.0016133856842 
-0.0016895833823 -0.0021514615715 -0.0022558318502 -0.0020248067879 -0.0018378302477 -0.0018722086851 -0.0021253318607 -0.0023676700201 -0.0023358137348 
-0.002100372565 -0.0019617156712 -0.0019927662206 -0.0021221031382 -0.0019982228772 -0.0015943784892 -0.0013256408193 -0.0012484531299 -0.0013004674004 
-0.0015465958396 -0.0018435346948 -0.0017882989335 -0.0017422016551 -0.0019063230578 -0.0021714139599 -0.0023849062023 -0.002220522393 -0.0016735614738 
-0.0010675501406 -0.00064355371297 -0.00074070084134 -0.001255606322 -0.0018217371996 -0.0021720961975 -0.0018519005802 -0.0012134940084 -0.00071049941002 
-0.00063610741135 -0.0010701743482 -0.0017128999431 -0.0022259138163 -0.0023040637764 -0.0019432114819 -0.0016257856761 -0.0016537891964 -0.0019394436795 
-0.0021345211542 -0.0018762816277 -0.0013771807526 -0.0010561914379 -0.0011980810532 -0.0015123228567 -0.0019889232322 -0.0019516855441 -0.0015462387014 
-0.0012937381215 -0.0013586331869 -0.0017260836631 -0.0021814102473 -0.0024124166944 -0.0022970301123 -0.0020873287347 -0.0019802265821 -0.0019368773219 
-0.0016392366314 -0.0012979953162 -0.0010187906074 -0.00094195350258 -0.0010583043458 -0.0012715109526 -0.001376867021 -0.0011522794177 -0.0011311138747 
-0.001271668841 -0.0015120430513 -0.0019552403615 -0.0021504052354 -0.0017699931094 -0.0012680449655 -0.00099579064528 -0.0010978989675 -0.0015285436669 
-0.0020178101554 -0.0022002193666 -0.0017566340991 -0.0010867372317 -0.00051043426988 -0.00041868448248 -0.00091290072052 -0.0015645268659 -0.002111249661 
-0.0022870449764 -0.0020835425566 -0.0018833479304 -0.0019306422532 -0.0021388836393 -0.002137215587 -0.0017297138172 -0.0011927028018 -0.00083220931617 
-0.00098557380284 -0.0015473285947 -0.001918041412 -0.0016807841408 -0.0011994748587 -0.00085928358943 -0.00098448269158 -0.001472169313 -0.0019625914363 
-0.0021927539649 -0.0018927554064 -0.0016101681748 -0.001483120606 -0.0014183339845 -0.0014062272152 -0.0012026504345 -0.0009475635716 -0.000918834125 
-0.0010547144566 -0.0012408036974 -0.0011404042773 -0.0008315560243 -0.00068981095522 -0.00075548535296 -0.00098015231727 -0.0014057333025 -0.0019856208367 
-0.0020338295063 -0.0016968547722 -0.0015354195203 -0.0016704963528 -0.0020145452388 -0.002347986049 -0.002373727875 -0.0019711737932 -0.00136278983 
-0.0008864890837 -0.00081021539563 -0.0011113978947 -0.0016240182582 -0.0020163070769 -0.0018784563526 -0.0015275610846 -0.0013247867088 -0.0014428456329 
-0.0019156398727 -0.0020682663962 -0.0017629228077 -0.0013070484487 -0.00099205071803 -0.0010992193609 -0.0017802101031 -0.0020038975295 -0.0016755384201 
-0.001184815469 -0.0008513181826 -0.00098279251579 -0.001448095219 -0.00185691373 -0.0017925239163 -0.001346608045 -0.0010782991411 -0.00098311920679 
-0.00096166979119 -0.0011506621888 -0.0011741154127 -0.0010416729618 -0.0010546420498 -0.0011699280864 -0.001312339485 -0.0011268441283 -0.0007950256875 
-0.00058369167093 -0.00057752315231 -0.0007785441826 -0.0011769169321 -0.0018468495215 -0.002195755134 -0.0020761584273 -0.0019644875238 -0.0021076504764 
-0.0023823200481 -0.0025716864853 -0.0025554649137 -0.002317486534 -0.001914300799 -0.0015721883661 -0.0014635809522 -0.0016033866954 -0.0018676092567 
-0.0017274256627 -0.0013504551721 -0.001134463705 -0.00096463080073 -0.00091016056813 -0.0012631264681 -0.0019277520284 -0.0019627285894 -0.0016627413885 
-0.0014118285706 -0.0014562637348 -0.0020539029582 -0.0021798452744 -0.0019224107985 -0.0014999363513 -0.001265092208 -0.0013386071977 -0.0016600339206 
-0.001889313615 -0.0014341991369 -0.00097619866781 -0.00064301311451 -0.0006017513899 -0.00067055952814 -0.00096012821333 -0.0012533450474 -0.0012857690595 
-0.0013428146909 -0.0014401799018 -0.0015350021356 -0.0012275272565 -0.00088900191791 -0.0006696051097 -0.00061297334664 -0.00080144925683 -0.0011880512106 
-0.001872201745 -0.002101345712 -0.0018780601684 -0.0017453590109 -0.0019562624216 -0.002313151461 -0.0025738136408 -0.0026431259019 -0.0025708660094 
-0.0023960656111 -0.0022000404601 -0.0021006160936 -0.0021158286274 -0.0019262093694 -0.0013731759949 -0.0010654179313 -0.00087718986938 -0.00068077966418 
-0.00065587445365 -0.00096060411725 -0.0016777875648 -0.0021690144817 -0.0020606358514 -0.0018690812505 -0.0018584770496 -0.0022215037757 -0.0022811818133 
-0.0021810275142 -0.0019443886932 -0.0017866129214 -0.001832939872 -0.0020444228248 -0.0020419037551 -0.0013123597877 -0.00081873409196 -0.0004451806193 
-0.00048494195875 -0.0006499145141 -0.001025742723 -0.0014474567742 -0.0016920602961 -0.0017544393447 -0.0019081498157 -0.0019981124475 -0.001597656848 
-0.0011989999561 -0.0010177899851 -0.00097705042614 -0.0011153347284 -0.001549777649 -0.001954984911 -0.001632299064 -0.0011377383221 -0.0010979618531 
-0.0013344880519 -0.0017770075603 -0.0022991172146 -0.0025770223705 -0.0026097084679 -0.0025168140638 -0.0024056464522 -0.0023351982769 -0.0022455481513 
-0.0017999127267 -0.0011830978701 -0.00091217302372 -0.00080088323477 -0.00063922666198 -0.00061418757789 -0.00097167619718 -0.0015943878708 -0.0023060499469 
-0.0023507722111 -0.0022063625087 -0.0021465475722 -0.0022495459441 -0.0022468349636 -0.0022243033408 -0.0021855432566 -0.0021759575126 -0.0022540146878 
-0.0023676643747 -0.0022761368232 -0.0016110149047 -0.00097043120507 -0.00068026564288 -0.00072487009794 -0.00093260299412 -0.0013598055344 -0.0019216830858 
-0.0022096553216 -0.0022430091604 -0.002317686929 -0.0023850957876 -0.002229217799 -0.0018269300991 -0.0015964935107 -0.001564043997 -0.0017790196268 
-0.0021219840733 -0.0018897701509 -0.0012025017548 -0.00070376054162 -0.0005885977871 -0.00079204417406 -0.0012583287382 -0.0018453102125 -0.0023181199145 
-0.0023382868094 -0.0021041595308 -0.0019403225652 -0.0018568308534 -0.0019388581895 -0.0016558336514 -0.0010400644308 -0.00080781288522 -0.00069319466093 
-0.00071340762504 -0.00071852983488 -0.0010549401095 -0.0016781599647 -0.0024026345188 -0.0025037427561 -0.002377446586 -0.002272408798 -0.0021716020939 
-0.0021554133389 -0.0021593709497 -0.0022009927173 -0.0022848751369 -0.0023888300823 -0.0024530971743 -0.00240967508 -0.002146806962 -0.0015712786586 
-0.0012688268615 -0.001328557761 -0.0015274072024 -0.0019645010708 -0.0023088549255 -0.0022561851578 -0.0021131660742 -0.0021644504852 -0.002381218529 
-0.0025253434008 -0.0024664091655 -0.0023241081213 -0.0023074041889 -0.0024238835409 -0.0023871909611 -0.0018608373631 -0.001166880564 -0.00057144987423 
-0.00036194174405 -0.00055466249383 -0.001032914645 -0.0015405329918 -0.0019421912306 -0.0017337878631 -0.0014302104244 -0.0012945517555 -0.0011677146601 
-0.0012622136357 -0.0014754248009 -0.0011564737379 -0.00089557765438 -0.00082970931065 -0.00085421277939 -0.00092589492045 -0.0012457880196 -0.0019568390532 
-0.0024727980614 -0.0025040653699 -0.0023522975281 -0.0022223767597 -0.002006020066 -0.0020848084351 -0.0021346718837 -0.0021995848977 -0.0022869140254 
-0.0023442903247 -0.0023243805249 -0.0022817976929 -0.002264062839 -0.0021871326344 -0.001997161021 -0.002007792511 -0.0021976690962 -0.0024060141248 
-0.0022579954472 -0.0018340422593 -0.0015543779371 -0.0016054615929 -0.001977719678 -0.0024219861416 -0.0026344194294 -0.0026420740354 -0.0026029149007 
-0.0025757427695 -0.0024544062481 -0.00198194339 -0.0012984310722 -0.00068269749087 -0.00043104637459 -0.00057063534586 -0.00097812246636 -0.0014096362016 
-0.001562416262 -0.0012041627577 -0.00088239050248 -0.0007451708054 -0.00066994848858 -0.00083594638821 -0.0012095931545 -0.0016465494521 -0.001416559058 
-0.0012634869443 -0.0012895364636 -0.0013792825818 -0.001796292275 -0.0022867985697 -0.0024032943648 -0.0022183879786 -0.0019935083241 -0.0019300852478 
-0.0017112555467 -0.0020166596603 -0.0021770460278 -0.0022529681787 -0.0022757054463 -0.0021858755746 -0.0020055459362 -0.0019104164544 -0.0019847397008 
-0.0021819704638 -0.0023546759284 -0.0024590373658 -0.0025234701246 -0.0023868345648 -0.0018803073629 -0.0012508174987 -0.00085822967371 -0.00091092656729 
-0.0014066027313 -0.0020711930657 -0.002518370946 -0.0026062399535 -0.0025021269912 -0.0023834005618 -0.0023216592529 -0.0021257948902 -0.0015860144179 
-0.0010611994827 -0.00085856767563 -0.00090970613901 -0.0012257199458 -0.0016442843342 -0.0013787533672 -0.00097397927357 -0.00060819221177 -0.00051611266879 
-0.00047229642348 -0.00079320329436 -0.0012361918548 -0.0020234698837 -0.0021914999153 -0.0020952884255 -0.0020531210305 -0.0021521118131 -0.0023395750241 
-0.0023594181186 -0.0020495195422 -0.0015929416733 -0.0013589183487 -0.0014089990356 -0.001352454866 -0.0018955159561 -0.0022237605231 -0.0023069376255 
-0.0022091279898 -0.0019237738282 -0.0015937743426 -0.0014372153442 -0.0015569830732 -0.0018859888019 -0.0022474872219 -0.0024811143633 -0.0025147437036 
-0.002232543425 -0.001605954245 -0.00087408736163 -0.00031718119043 -0.00038713362235 -0.0010179173866 -0.0017691240693 -0.0023217877694 -0.0023865666807 
-0.0021251839568 -0.0018915853686 -0.0018835538397 -0.0020072763378 -0.0019526839828 -0.0015957018823 -0.0013827353769 -0.0014392229108 -0.001834250224 
-0.0020445348504 -0.0015355604419 -0.00096218458612 -0.00060844732988 -0.00053431659577 -0.00060086608036 -0.00097569338454 -0.0015279505108 -0.0022380211965 
-0.0023736248811 -0.0023096337934 -0.0022964760225 -0.0023797555513 -0.0024341411697 -0.0021948779895 -0.0016045998033 -0.0010437595051 -0.00075572596523 
-0.0008669972959 -0.0011769806305 -0.001801797842 -0.0022309525269 -0.0022718977013 -0.0020561046422 -0.0016787771737 -0.0012956911473 -0.0011039686411 
-0.0012600695266 -0.0016662390418 -0.0021049964394 -0.0024084693859 -0.002483728689 -0.0022380066894 -0.0016289386422 -0.0009184392866 -0.00041331630105 
-0.00045382094525 -0.00100694893 -0.001713094498 -0.0021950621207 -0.0020847340621 -0.0016405213555 -0.0013041523239 -0.0013204800691 -0.0016388643138 
-0.0020026405969 -0.0021381574295 -0.0020938178804 -0.0020874998211 -0.0021432839841 -0.0021606435422 -0.0019055573997 -0.0012449040399 -0.00090489415977 
-0.00087835799167 -0.00098598676028 -0.0013336787907 -0.0019304121264 -0.002302513542 -0.002222308475 -0.0020679542023 -0.0020406498881 -0.0021717796905 
-0.002292212588 -0.0020301055639 -0.0014306618014 -0.00080258405029 -0.0004072023249 -0.00059938870037 -0.0013047221325 -0.0018972013703 -0.0021837617258 
-0.0020757175291 -0.0018433844304 -0.0015553386635 -0.0012598299552 -0.0011262065017 -0.001294804331 -0.0016946637035 -0.0021189788691 -0.0024037899515 
-0.0025129549839 -0.0024064124178 -0.0019725340978 -0.0013952854642 -0.0010471675459 -0.0010629766284 -0.0014432960398 -0.0019646159997 -0.0021921528259 
-0.0019036118762 -0.001364240754 -0.00093723077212 -0.00095564095124 -0.0014098553608 -0.0019430585888 -0.0022833910126 -0.0022309735023 -0.0018869951436 
-0.0016921008644 -0.0017418556624 -0.0019184052012 -0.0018600660796 -0.0015121337338 -0.0014703181933 -0.0015777066387 -0.0019001290684 -0.002258189842 
-0.0022373204384 -0.0019687115293 -0.0017104421509 -0.001667555093 -0.0018680818236 -0.0021190315098 -0.0020318276841 -0.0015286891579 -0.00095203297407 
-0.00063445799059 -0.00079269867197 -0.0017532767899 -0.0021145002486 -0.0020415265363 -0.0017986222321 -0.0016104973495 -0.0015031490134 -0.0014258203169 
-0.0014272774726 -0.0016074492923 -0.001935445915 -0.0022433415158 -0.0024372704527 -0.0025374365203 -0.0025304287384 -0.002334335377 -0.0019739617712 
-0.0017376646019 -0.0017618458108 -0.0019960029525 -0.0022411099257 -0.0022783720245 -0.0019787070535 -0.0014590459463 -0.0010499133586 -0.0010699053748 
-0.0015100229788 -0.0020368873667 -0.0022778117237 -0.0018938032922 -0.001329254937 -0.0011314912423 -0.0012179675247 -0.0015601151879 -0.0020342592016 
-0.0022262425202 -0.0021827225892 -0.0022075691141 -0.0023023336783 -0.0023158105294 -0.0021441638949 -0.0018143704765 -0.0015162723008 -0.0014666443228 
-0.0017031177651 -0.0020408699063 -0.0021633197756 -0.0018552415262 -0.0014295801753 -0.0012322868639 -0.0013352128501 -0.0022055617244 -0.0021797438344 
-0.0018969097937 -0.0015873731366 -0.0014339740875 -0.0014818800628 -0.0016230879783 -0.0017760665753 -0.0019604473759 -0.002164231965 -0.0023258964028 